 DBCSR| Multiplication driver                                               BLAS
 DBCSR| Multrec recursion limit                                              512
 DBCSR| Multiplication stack size                                           1000
 DBCSR| Maximum elements for images                                    UNLIMITED
 DBCSR| Multiplicative factor virtual images                                   1
 DBCSR| Multiplication size stacks                                             3
 DBCSR| Number of 3D layers                                               SINGLE
 DBCSR| Use MPI memory allocation                                              T
 DBCSR| Use RMA algorithm                                                      F
 DBCSR| Use Communication thread                                               T
 DBCSR| Communication thread load                                             87


  **** **** ******  **  PROGRAM STARTED AT               2019-07-15 16:42:29.112
 ***** ** ***  *** **   PROGRAM STARTED ON            login4.colonialone.gwu.edu
 **    ****   ******    PROGRAM STARTED BY                              zanghang
 ***** **    ** ** **   PROGRAM PROCESS ID                                  9433
  **** **  *******  **  PROGRAM STARTED IN /home/zanghang/new-Benchmark-cp2k-Kwa
                                           nt-device-2-Au

 CP2K| version string:                    CP2K version 7.0 (Development Version)
 CP2K| source code revision number:                                             
 CP2K| cp2kflags: libint fftw3 libxc parallel mpi3 scalapack libderiv_max_am1=5 
 CP2K|            libint_max_am=6
 CP2K| is freely available from                            https://www.cp2k.org/
 CP2K| Program compiled at                          Fri Oct 26 19:29:23 EDT 2018
 CP2K| Program compiled on                            login3.colonialone.gwu.edu
 CP2K| Program compiled for                                                local
 CP2K| Data directory path                     /home/zanghang/program2/cp2k/data
 CP2K| Input file name                                                device.inp

 GLOBAL| Force Environment number                                              1
 GLOBAL| Basis set file name                                           BASIS_SET
 GLOBAL| Potential file name                                           POTENTIAL
 GLOBAL| MM Potential file name                                     MM_POTENTIAL
 GLOBAL| Coordinate file name                                      __STD_INPUT__
 GLOBAL| Method name                                                        CP2K
 GLOBAL| Project name                                                       TEST
 GLOBAL| Preferred FFT library                                             FFTW3
 GLOBAL| Preferred diagonalization lib.                                       SL
 GLOBAL| Run type                                                         ENERGY
 GLOBAL| All-to-all communication in single precision                          F
 GLOBAL| FFTs using library dependent lengths                                  F
 GLOBAL| Global print level                                                  LOW
 GLOBAL| MPI I/O enabled                                                       T
 GLOBAL| Total number of message passing processes                             1
 GLOBAL| Number of threads for this process                                    1
 GLOBAL| This output is from process                                           0
 GLOBAL| CPU model name :  Intel(R) Xeon(R) CPU E5-2670 0 @ 2.60GHz

 MEMORY| system memory details [Kb]
 MEMORY|                        rank 0           min           max       average
 MEMORY| MemTotal             66056956      66056956      66056956      66056956
 MEMORY| MemFree               6290596       6290596       6290596       6290596
 MEMORY| Buffers                109032        109032        109032        109032
 MEMORY| Cached               54094560      54094560      54094560      54094560
 MEMORY| Slab                  3528796       3528796       3528796       3528796
 MEMORY| SReclaimable           258324        258324        258324        258324
 MEMORY| MemLikelyFree        60752512      60752512      60752512      60752512


 GENERATE|  Preliminary Number of Bonds generated:                             0
 GENERATE|  Achieved consistency in connectivity generation.


              #####   #####        # ######  ####### ####### ######   
             #     # #     #      #  #     # #          #    #     #  
             #     # #           #   #     # #          #    #     #  
             #     #  #####     #    #     # #####      #    ######   
             #   # #       #   #     #     # #          #    #     #  
             #    #  #     #  #      #     # #          #    #     #  
              #### #  #####  #       ######  #          #    ######   
                                                                      
                                    Version 0.2                       
                               J. Hutter and T. Heine                 
                                                                      


 EWALD| Summation is done by:                                               SPME
 EWALD| Alpha parameter [       ANGSTROM^-1]                              0.3500
 EWALD| Real Space Cutoff [          ANGSTROM]                            9.6398
 EWALD| G-space max. Miller index                         51        51        51
 EWALD| Spline interpolation order                                             5

 *** WARNING in qs_environment.F:1146 :: More added MOs requested than ***
 *** available. The full set of unoccupied MOs will be used.           ***



 TOTAL NUMBERS AND MAXIMUM NUMBERS

  Total number of            - Atomic kinds:                                   1
                             - Atoms:                                         26
                             - Shell sets:                                     0
                             - Shells:                                        78
                             - Primitive Cartesian functions:                  0
                             - Cartesian basis functions:                    260
                             - Spherical basis functions:                    234

  Maximum angular momentum of the orbital basis functions:                     2

  LRI_AUX Basis: 
  Total number of            - Shell sets:                                     0
                             - Shells:                                        78
                             - Primitive Cartesian functions:                  0
                             - Cartesian basis functions:                    260
                             - Spherical basis functions:                    234
                               Maximum angular momentum                        2

  RI_HXC Basis: 
  Total number of            - Shell sets:                                     0
                             - Shells:                                        78
                             - Primitive Cartesian functions:                  0
                             - Cartesian basis functions:                    260
                             - Spherical basis functions:                    234
                               Maximum angular momentum                        2

  AUX_FIT ADMM-Basis: 
  Total number of            - Shell sets:                                     0
                             - Shells:                                        78
                             - Primitive Cartesian functions:                  0
                             - Cartesian basis functions:                    260
                             - Spherical basis functions:                    234
                               Maximum angular momentum                        2


 SCF PARAMETERS         Density guess:                                   RESTART
                        --------------------------------------------------------
                        max_scf:                                             800
                        max_scf_history:                                       0
                        max_diis:                                              4
                        --------------------------------------------------------
                        eps_scf:                                        1.00E-06
                        eps_scf_history:                                0.00E+00
                        eps_diis:                                       1.00E-01
                        eps_eigval:                                     1.00E-05
                        --------------------------------------------------------
                        level_shift [a.u.]:                                 0.00
                        added MOs                                        91    0
                        --------------------------------------------------------
                        Mixing method:                           DIRECT_P_MIXING
                        --------------------------------------------------------
                        Smear method:                                FERMI_DIRAC
                        Electronic temperature [K]:                        293.0
                        Electronic temperature [a.u.]:                  9.28E-04
                        Accuracy threshold:                             1.00E-10
                        --------------------------------------------------------
                        No outer SCF

 Number of electrons:                                                        286
 Number of occupied orbitals:                                                143
 Number of molecular orbitals:                                               234

 Number of orbital functions:                                                234
 Number of independent orbital functions:                                    234

 Extrapolation method: initial_guess

 *** WARNING in qs_initial_guess.F:263 :: User requested to restart the    ***
 *** wavefunction from the file named: TEST-RESTART_0.wfn. This file does  ***
 *** not exist. Please check the existence of the file or change properly  ***
 *** the value of the keyword WFN_RESTART_FILE_NAME. Calculation continues ***
 *** using ATOMIC GUESS.                                                   ***



 SCF WAVEFUNCTION OPTIMIZATION

  Step     Update method      Time    Convergence         Total energy    Change
  ------------------------------------------------------------------------------
     1 P_Mix/Diag. 0.10E-01    0.1     0.42045622       -71.6214397006 -7.16E+01
     2 P_Mix/Diag. 0.10E-01    0.1     0.41625166       -71.6332074081 -1.18E-02
     3 P_Mix/Diag. 0.10E-01    0.1     0.41208914       -71.6448574385 -1.17E-02
     4 P_Mix/Diag. 0.10E-01    0.1     0.40796825       -71.6563909686 -1.15E-02
     5 P_Mix/Diag. 0.10E-01    0.1     0.40388857       -71.6678091634 -1.14E-02
     6 P_Mix/Diag. 0.10E-01    0.1     0.39984968       -71.6791131763 -1.13E-02
     7 P_Mix/Diag. 0.10E-01    0.1     0.39585118       -71.6903041490 -1.12E-02
     8 P_Mix/Diag. 0.10E-01    0.1     0.39189267       -71.7013832120 -1.11E-02
     9 P_Mix/Diag. 0.10E-01    0.1     0.38797375       -71.7123514844 -1.10E-02
    10 P_Mix/Diag. 0.10E-01    0.1     0.38409401       -71.7232100741 -1.09E-02
    11 P_Mix/Diag. 0.10E-01    0.1     0.38025307       -71.7339600778 -1.08E-02
    12 P_Mix/Diag. 0.10E-01    0.1     0.37645054       -71.7446025816 -1.06E-02
    13 P_Mix/Diag. 0.10E-01    0.1     0.37268603       -71.7551386602 -1.05E-02
    14 P_Mix/Diag. 0.10E-01    0.1     0.36895917       -71.7655693781 -1.04E-02
    15 P_Mix/Diag. 0.10E-01    0.1     0.36526958       -71.7758957889 -1.03E-02
    16 P_Mix/Diag. 0.10E-01    0.1     0.36161688       -71.7861189355 -1.02E-02
    17 P_Mix/Diag. 0.10E-01    0.1     0.35800071       -71.7962398506 -1.01E-02
    18 P_Mix/Diag. 0.10E-01    0.1     0.35442071       -71.8062595566 -1.00E-02
    19 P_Mix/Diag. 0.10E-01    0.1     0.35087650       -71.8161790655 -9.92E-03
    20 P_Mix/Diag. 0.10E-01    0.1     0.34736774       -71.8259993794 -9.82E-03
    21 P_Mix/Diag. 0.10E-01    0.1     0.34389406       -71.8357214901 -9.72E-03
    22 P_Mix/Diag. 0.10E-01    0.1     0.34045512       -71.8453463797 -9.62E-03
    23 P_Mix/Diag. 0.10E-01    0.1     0.33705057       -71.8548750204 -9.53E-03
    24 P_Mix/Diag. 0.10E-01    0.1     0.33368006       -71.8643083747 -9.43E-03
    25 P_Mix/Diag. 0.10E-01    0.1     0.33034326       -71.8736473954 -9.34E-03
    26 P_Mix/Diag. 0.10E-01    0.1     0.32703983       -71.8828930260 -9.25E-03
    27 P_Mix/Diag. 0.10E-01    0.1     0.32376943       -71.8920462002 -9.15E-03
    28 P_Mix/Diag. 0.10E-01    0.1     0.32053174       -71.9011078427 -9.06E-03
    29 P_Mix/Diag. 0.10E-01    0.1     0.31732642       -71.9100788688 -8.97E-03
    30 P_Mix/Diag. 0.10E-01    0.1     0.31415315       -71.9189601846 -8.88E-03
    31 P_Mix/Diag. 0.10E-01    0.1     0.31101162       -71.9277526872 -8.79E-03
    32 P_Mix/Diag. 0.10E-01    0.1     0.30790151       -71.9364572649 -8.70E-03
    33 P_Mix/Diag. 0.10E-01    0.1     0.30482249       -71.9450747967 -8.62E-03
    34 P_Mix/Diag. 0.10E-01    0.1     0.30177427       -71.9536061533 -8.53E-03
    35 P_Mix/Diag. 0.10E-01    0.1     0.29875652       -71.9620521962 -8.45E-03
    36 P_Mix/Diag. 0.10E-01    0.1     0.29576896       -71.9704137788 -8.36E-03
    37 P_Mix/Diag. 0.10E-01    0.1     0.29281127       -71.9786917455 -8.28E-03
    38 P_Mix/Diag. 0.10E-01    0.1     0.28988316       -71.9868869325 -8.20E-03
    39 P_Mix/Diag. 0.10E-01    0.1     0.28698432       -71.9950001677 -8.11E-03
    40 P_Mix/Diag. 0.10E-01    0.1     0.28411448       -72.0030322705 -8.03E-03
    41 P_Mix/Diag. 0.10E-01    0.1     0.28127334       -72.0109840523 -7.95E-03
    42 P_Mix/Diag. 0.10E-01    0.1     0.27846060       -72.0188563163 -7.87E-03
    43 P_Mix/Diag. 0.10E-01    0.1     0.27567600       -72.0266498576 -7.79E-03
    44 P_Mix/Diag. 0.10E-01    0.1     0.27291924       -72.0343654635 -7.72E-03
    45 P_Mix/Diag. 0.10E-01    0.1     0.27019004       -72.0420039134 -7.64E-03
    46 P_Mix/Diag. 0.10E-01    0.1     0.26748814       -72.0495659788 -7.56E-03
    47 P_Mix/Diag. 0.10E-01    0.1     0.26481326       -72.0570524235 -7.49E-03
    48 P_Mix/Diag. 0.10E-01    0.1     0.26216513       -72.0644640037 -7.41E-03
    49 P_Mix/Diag. 0.10E-01    0.1     0.25954348       -72.0718014682 -7.34E-03
    50 P_Mix/Diag. 0.10E-01    0.1     0.25694804       -72.0790655580 -7.26E-03
    51 P_Mix/Diag. 0.10E-01    0.1     0.25437856       -72.0862570069 -7.19E-03
    52 P_Mix/Diag. 0.10E-01    0.1     0.25183478       -72.0933765414 -7.12E-03
    53 P_Mix/Diag. 0.10E-01    0.1     0.24931643       -72.1004248805 -7.05E-03
    54 P_Mix/Diag. 0.10E-01    0.1     0.24682327       -72.1074027361 -6.98E-03
    55 P_Mix/Diag. 0.10E-01    0.1     0.24435503       -72.1143108133 -6.91E-03
    56 P_Mix/Diag. 0.10E-01    0.1     0.24191148       -72.1211498097 -6.84E-03
    57 P_Mix/Diag. 0.10E-01    0.1     0.23949237       -72.1279204161 -6.77E-03
    58 P_Mix/Diag. 0.10E-01    0.1     0.23709744       -72.1346233164 -6.70E-03
    59 P_Mix/Diag. 0.10E-01    0.1     0.23472647       -72.1412591877 -6.64E-03
    60 P_Mix/Diag. 0.10E-01    0.1     0.23237920       -72.1478287003 -6.57E-03
    61 P_Mix/Diag. 0.10E-01    0.1     0.23005541       -72.1543325178 -6.50E-03
    62 P_Mix/Diag. 0.10E-01    0.1     0.22775486       -72.1607712972 -6.44E-03
    63 P_Mix/Diag. 0.10E-01    0.1     0.22547731       -72.1671456887 -6.37E-03
    64 P_Mix/Diag. 0.10E-01    0.1     0.22322254       -72.1734563363 -6.31E-03
    65 P_Mix/Diag. 0.10E-01    0.1     0.22099031       -72.1797038774 -6.25E-03
    66 P_Mix/Diag. 0.10E-01    0.1     0.21878041       -72.1858889432 -6.19E-03
    67 P_Mix/Diag. 0.10E-01    0.1     0.21659260       -72.1920121582 -6.12E-03
    68 P_Mix/Diag. 0.10E-01    0.1     0.21442668       -72.1980741411 -6.06E-03
    69 P_Mix/Diag. 0.10E-01    0.1     0.21228241       -72.2040755042 -6.00E-03
    70 P_Mix/Diag. 0.10E-01    0.1     0.21015959       -72.2100168537 -5.94E-03
    71 P_Mix/Diag. 0.10E-01    0.1     0.20805799       -72.2158987897 -5.88E-03
    72 P_Mix/Diag. 0.10E-01    0.1     0.20597741       -72.2217219063 -5.82E-03
    73 P_Mix/Diag. 0.10E-01    0.1     0.20391764       -72.2274867917 -5.76E-03
    74 P_Mix/Diag. 0.10E-01    0.1     0.20187846       -72.2331940283 -5.71E-03
    75 P_Mix/Diag. 0.10E-01    0.1     0.19985968       -72.2388441925 -5.65E-03
    76 P_Mix/Diag. 0.10E-01    0.1     0.19786108       -72.2444378551 -5.59E-03
    77 P_Mix/Diag. 0.10E-01    0.1     0.19588247       -72.2499755810 -5.54E-03
    78 P_Mix/Diag. 0.10E-01    0.1     0.19392364       -72.2554579297 -5.48E-03
    79 P_Mix/Diag. 0.10E-01    0.1     0.19198441       -72.2608854549 -5.43E-03
    80 P_Mix/Diag. 0.10E-01    0.1     0.19006456       -72.2662587049 -5.37E-03
    81 P_Mix/Diag. 0.10E-01    0.1     0.18816392       -72.2715782223 -5.32E-03
    82 P_Mix/Diag. 0.10E-01    0.1     0.18628228       -72.2768445446 -5.27E-03
    83 P_Mix/Diag. 0.10E-01    0.1     0.18441946       -72.2820582036 -5.21E-03
    84 P_Mix/Diag. 0.10E-01    0.1     0.18257526       -72.2872197261 -5.16E-03
    85 P_Mix/Diag. 0.10E-01    0.1     0.18074951       -72.2923296333 -5.11E-03
    86 P_Mix/Diag. 0.10E-01    0.1     0.17894201       -72.2973884415 -5.06E-03
    87 P_Mix/Diag. 0.10E-01    0.1     0.17715259       -72.3023966616 -5.01E-03
    88 P_Mix/Diag. 0.10E-01    0.1     0.17538107       -72.3073547995 -4.96E-03
    89 P_Mix/Diag. 0.10E-01    0.1     0.17362726       -72.3122633560 -4.91E-03
    90 P_Mix/Diag. 0.10E-01    0.1     0.17189098       -72.3171228269 -4.86E-03
    91 P_Mix/Diag. 0.10E-01    0.1     0.17017207       -72.3219337031 -4.81E-03
    92 P_Mix/Diag. 0.10E-01    0.1     0.16847035       -72.3266964706 -4.76E-03
    93 P_Mix/Diag. 0.10E-01    0.1     0.16678565       -72.3314116104 -4.72E-03
    94 P_Mix/Diag. 0.10E-01    0.1     0.16511779       -72.3360795988 -4.67E-03
    95 P_Mix/Diag. 0.10E-01    0.1     0.16346662       -72.3407009073 -4.62E-03
    96 P_Mix/Diag. 0.10E-01    0.1     0.16183195       -72.3452760027 -4.58E-03
    97 P_Mix/Diag. 0.10E-01    0.1     0.16021363       -72.3498053472 -4.53E-03
    98 P_Mix/Diag. 0.10E-01    0.1     0.15861149       -72.3542893982 -4.48E-03
    99 P_Mix/Diag. 0.10E-01    0.1     0.15702538       -72.3587286087 -4.44E-03
   100 P_Mix/Diag. 0.10E-01    0.1     0.15545513       -72.3631234272 -4.39E-03
   101 P_Mix/Diag. 0.10E-01    0.1     0.15390057       -72.3674742974 -4.35E-03
   102 P_Mix/Diag. 0.10E-01    0.1     0.15236157       -72.3717816589 -4.31E-03
   103 P_Mix/Diag. 0.10E-01    0.1     0.15083795       -72.3760459468 -4.26E-03
   104 P_Mix/Diag. 0.10E-01    0.1     0.14932957       -72.3802675919 -4.22E-03
   105 P_Mix/Diag. 0.10E-01    0.1     0.14783628       -72.3844470204 -4.18E-03
   106 P_Mix/Diag. 0.10E-01    0.1     0.14635791       -72.3885846547 -4.14E-03
   107 P_Mix/Diag. 0.10E-01    0.1     0.14489434       -72.3926809127 -4.10E-03
   108 P_Mix/Diag. 0.10E-01    0.1     0.14344539       -72.3967362080 -4.06E-03
   109 P_Mix/Diag. 0.10E-01    0.1     0.14201094       -72.4007509505 -4.01E-03
   110 P_Mix/Diag. 0.10E-01    0.1     0.14059083       -72.4047255455 -3.97E-03
   111 P_Mix/Diag. 0.10E-01    0.1     0.13918492       -72.4086603945 -3.93E-03
   112 P_Mix/Diag. 0.10E-01    0.1     0.13779307       -72.4125558951 -3.90E-03
   113 P_Mix/Diag. 0.10E-01    0.1     0.13641514       -72.4164124406 -3.86E-03
   114 P_Mix/Diag. 0.10E-01    0.1     0.13505099       -72.4202304207 -3.82E-03
   115 P_Mix/Diag. 0.10E-01    0.1     0.13370048       -72.4240102210 -3.78E-03
   116 P_Mix/Diag. 0.10E-01    0.1     0.13236347       -72.4277522233 -3.74E-03
   117 P_Mix/Diag. 0.10E-01    0.1     0.13103984       -72.4314568055 -3.70E-03
   118 P_Mix/Diag. 0.10E-01    0.1     0.12972944       -72.4351243420 -3.67E-03
   119 P_Mix/Diag. 0.10E-01    0.1     0.12843215       -72.4387552031 -3.63E-03
   120 P_Mix/Diag. 0.10E-01    0.1     0.12714783       -72.4423497555 -3.59E-03
   121 P_Mix/Diag. 0.10E-01    0.1     0.12587635       -72.4459083625 -3.56E-03
   122 P_Mix/Diag. 0.10E-01    0.1     0.12461758       -72.4494313834 -3.52E-03
   123 P_Mix/Diag. 0.10E-01    0.1     0.12337141       -72.4529191740 -3.49E-03
   124 P_Mix/Diag. 0.10E-01    0.1     0.12213769       -72.4563720868 -3.45E-03
   125 P_Mix/Diag. 0.10E-01    0.1     0.12091632       -72.4597904704 -3.42E-03
   126 P_Mix/Diag. 0.10E-01    0.1     0.11970715       -72.4631746702 -3.38E-03
   127 P_Mix/Diag. 0.10E-01    0.1     0.11851008       -72.4665250280 -3.35E-03
   128 P_Mix/Diag. 0.10E-01    0.1     0.11732498       -72.4698418822 -3.32E-03
   129 P_Mix/Diag. 0.10E-01    0.1     0.11615173       -72.4731255679 -3.28E-03
   130 P_Mix/Diag. 0.10E-01    0.1     0.11499021       -72.4763764167 -3.25E-03
   131 P_Mix/Diag. 0.10E-01    0.1     0.11384031       -72.4795947570 -3.22E-03
   132 P_Mix/Diag. 0.10E-01    0.1     0.11270191       -72.4827809140 -3.19E-03
   133 P_Mix/Diag. 0.10E-01    0.1     0.11157489       -72.4859352093 -3.15E-03
   134 P_Mix/Diag. 0.10E-01    0.1     0.11045914       -72.4890579617 -3.12E-03
   135 P_Mix/Diag. 0.10E-01    0.1     0.10935455       -72.4921494866 -3.09E-03
   136 P_Mix/Diag. 0.10E-01    0.1     0.10826100       -72.4952100963 -3.06E-03
   137 P_Mix/Diag. 0.10E-01    0.1     0.10717839       -72.4982400998 -3.03E-03
   138 P_Mix/Diag. 0.10E-01    0.1     0.10610661       -72.5012398033 -3.00E-03
   139 P_Mix/Diag. 0.10E-01    0.1     0.10504554       -72.5042095098 -2.97E-03
   140 P_Mix/Diag. 0.10E-01    0.1     0.10399509       -72.5071495192 -2.94E-03
   141 P_Mix/Diag. 0.10E-01    0.1     0.10295514       -72.5100601285 -2.91E-03
   142 P_Mix/Diag. 0.10E-01    0.1     0.10192559       -72.5129416317 -2.88E-03
   143 P_Mix/Diag. 0.10E-01    0.1     0.10090633       -72.5157943199 -2.85E-03
   144 P_Mix/Diag. 0.10E-01    0.1     0.09989727       -72.5186184812 -2.82E-03
   145 P_Mix/Diag. 0.10E-01    0.1     0.09889829       -72.5214144009 -2.80E-03
   146 P_Mix/Diag. 0.10E-01    0.1     0.09790931       -72.5241823613 -2.77E-03
   147 P_Mix/Diag. 0.10E-01    0.1     0.09693022       -72.5269226422 -2.74E-03
   148 P_Mix/Diag. 0.10E-01    0.1     0.09596092       -72.5296355203 -2.71E-03
   149 P_Mix/Diag. 0.10E-01    0.1     0.09500131       -72.5323212696 -2.69E-03
   150 P_Mix/Diag. 0.10E-01    0.1     0.09405129       -72.5349801614 -2.66E-03
   151 P_Mix/Diag. 0.10E-01    0.1     0.09311078       -72.5376124643 -2.63E-03
   152 P_Mix/Diag. 0.10E-01    0.1     0.09217967       -72.5402184441 -2.61E-03
   153 P_Mix/Diag. 0.10E-01    0.1     0.09125788       -72.5427983642 -2.58E-03
   154 P_Mix/Diag. 0.10E-01    0.1     0.09034530       -72.5453524851 -2.55E-03
   155 P_Mix/Diag. 0.10E-01    0.1     0.08944184       -72.5478810647 -2.53E-03
   156 P_Mix/Diag. 0.10E-01    0.1     0.08854743       -72.5503843586 -2.50E-03
   157 P_Mix/Diag. 0.10E-01    0.1     0.08766195       -72.5528626195 -2.48E-03
   158 P_Mix/Diag. 0.10E-01    0.1     0.08678533       -72.5553160978 -2.45E-03
   159 P_Mix/Diag. 0.10E-01    0.1     0.08591748       -72.5577450413 -2.43E-03
   160 P_Mix/Diag. 0.10E-01    0.1     0.08505830       -72.5601496954 -2.40E-03
   161 P_Mix/Diag. 0.10E-01    0.1     0.08420772       -72.5625303029 -2.38E-03
   162 P_Mix/Diag. 0.10E-01    0.1     0.08336564       -72.5648871044 -2.36E-03
   163 P_Mix/Diag. 0.10E-01    0.1     0.08253199       -72.5672203379 -2.33E-03
   164 P_Mix/Diag. 0.10E-01    0.1     0.08170667       -72.5695302390 -2.31E-03
   165 P_Mix/Diag. 0.10E-01    0.1     0.08088960       -72.5718170411 -2.29E-03
   166 P_Mix/Diag. 0.10E-01    0.1     0.08008071       -72.5740809752 -2.26E-03
   167 P_Mix/Diag. 0.10E-01    0.1     0.07927990       -72.5763222699 -2.24E-03
   168 P_Mix/Diag. 0.10E-01    0.1     0.07848710       -72.5785411517 -2.22E-03
   169 P_Mix/Diag. 0.10E-01    0.1     0.07770223       -72.5807378447 -2.20E-03
   170 P_Mix/Diag. 0.10E-01    0.1     0.07692521       -72.5829125708 -2.17E-03
   171 P_Mix/Diag. 0.10E-01    0.1     0.07615595       -72.5850655495 -2.15E-03
   172 P_Mix/Diag. 0.10E-01    0.1     0.07539439       -72.5871969985 -2.13E-03
   173 P_Mix/Diag. 0.10E-01    0.1     0.07464045       -72.5893071331 -2.11E-03
   174 P_Mix/Diag. 0.10E-01    0.1     0.07389405       -72.5913961662 -2.09E-03
   175 P_Mix/Diag. 0.10E-01    0.1     0.07315511       -72.5934643091 -2.07E-03
   176 P_Mix/Diag. 0.10E-01    0.1     0.07242355       -72.5955117705 -2.05E-03
   177 P_Mix/Diag. 0.10E-01    0.1     0.07169932       -72.5975387573 -2.03E-03
   178 P_Mix/Diag. 0.10E-01    0.1     0.07098233       -72.5995454742 -2.01E-03
   179 P_Mix/Diag. 0.10E-01    0.1     0.07027250       -72.6015321239 -1.99E-03
   180 P_Mix/Diag. 0.10E-01    0.1     0.06956978       -72.6034989072 -1.97E-03
   181 P_Mix/Diag. 0.10E-01    0.1     0.06887408       -72.6054460226 -1.95E-03
   182 P_Mix/Diag. 0.10E-01    0.1     0.06818534       -72.6073736669 -1.93E-03
   183 P_Mix/Diag. 0.10E-01    0.1     0.06750349       -72.6092820347 -1.91E-03
   184 P_Mix/Diag. 0.10E-01    0.1     0.06682845       -72.6111713189 -1.89E-03
   185 P_Mix/Diag. 0.10E-01    0.1     0.06616017       -72.6130417102 -1.87E-03
   186 P_Mix/Diag. 0.10E-01    0.1     0.06549856       -72.6148933976 -1.85E-03
   187 P_Mix/Diag. 0.10E-01    0.1     0.06484358       -72.6167265681 -1.83E-03
   188 P_Mix/Diag. 0.10E-01    0.1     0.06419514       -72.6185414069 -1.81E-03
   189 P_Mix/Diag. 0.10E-01    0.1     0.06355319       -72.6203380974 -1.80E-03
   190 P_Mix/Diag. 0.10E-01    0.1     0.06291766       -72.6221168209 -1.78E-03
   191 P_Mix/Diag. 0.10E-01    0.1     0.06228848       -72.6238777572 -1.76E-03
   192 P_Mix/Diag. 0.10E-01    0.1     0.06166560       -72.6256210841 -1.74E-03
   193 P_Mix/Diag. 0.10E-01    0.1     0.06104894       -72.6273469778 -1.73E-03
   194 P_Mix/Diag. 0.10E-01    0.1     0.06043845       -72.6290556125 -1.71E-03
   195 P_Mix/Diag. 0.10E-01    0.1     0.05983407       -72.6307471609 -1.69E-03
   196 P_Mix/Diag. 0.10E-01    0.1     0.05923573       -72.6324217938 -1.67E-03
   197 P_Mix/Diag. 0.10E-01    0.1     0.05864337       -72.6340796803 -1.66E-03
   198 P_Mix/Diag. 0.10E-01    0.1     0.05805694       -72.6357209880 -1.64E-03
   199 P_Mix/Diag. 0.10E-01    0.1     0.05747637       -72.6373458826 -1.62E-03
   200 P_Mix/Diag. 0.10E-01    0.1     0.05690160       -72.6389545283 -1.61E-03
   201 P_Mix/Diag. 0.10E-01    0.1     0.05633259       -72.6405470875 -1.59E-03
   202 P_Mix/Diag. 0.10E-01    0.1     0.05576926       -72.6421237211 -1.58E-03
   203 P_Mix/Diag. 0.10E-01    0.1     0.05521157       -72.6436845884 -1.56E-03
   204 P_Mix/Diag. 0.10E-01    0.1     0.05465945       -72.6452298470 -1.55E-03
   205 P_Mix/Diag. 0.10E-01    0.1     0.05411286       -72.6467596531 -1.53E-03
   206 P_Mix/Diag. 0.10E-01    0.1     0.05357173       -72.6482741610 -1.51E-03
   207 P_Mix/Diag. 0.10E-01    0.1     0.05303601       -72.6497735239 -1.50E-03
   208 P_Mix/Diag. 0.10E-01    0.1     0.05250565       -72.6512578932 -1.48E-03
   209 P_Mix/Diag. 0.10E-01    0.1     0.05198060       -72.6527274188 -1.47E-03
   210 P_Mix/Diag. 0.10E-01    0.1     0.05146079       -72.6541822491 -1.45E-03
   211 P_Mix/Diag. 0.10E-01    0.1     0.05094618       -72.6556225311 -1.44E-03
   212 P_Mix/Diag. 0.10E-01    0.1     0.05043672       -72.6570484103 -1.43E-03
   213 P_Mix/Diag. 0.10E-01    0.1     0.04993235       -72.6584600307 -1.41E-03
   214 P_Mix/Diag. 0.10E-01    0.1     0.04943303       -72.6598575348 -1.40E-03
   215 P_Mix/Diag. 0.10E-01    0.1     0.04893870       -72.6612410640 -1.38E-03
   216 P_Mix/Diag. 0.10E-01    0.1     0.04844931       -72.6626107579 -1.37E-03
   217 P_Mix/Diag. 0.10E-01    0.1     0.04796482       -72.6639667548 -1.36E-03
   218 P_Mix/Diag. 0.10E-01    0.1     0.04748517       -72.6653091917 -1.34E-03
   219 P_Mix/Diag. 0.10E-01    0.1     0.04701032       -72.6666382043 -1.33E-03
   220 P_Mix/Diag. 0.10E-01    0.1     0.04654022       -72.6679539268 -1.32E-03
   221 P_Mix/Diag. 0.10E-01    0.1     0.04607481       -72.6692564920 -1.30E-03
   222 P_Mix/Diag. 0.10E-01    0.1     0.04561407       -72.6705460316 -1.29E-03
   223 P_Mix/Diag. 0.10E-01    0.1     0.04515793       -72.6718226758 -1.28E-03
   224 P_Mix/Diag. 0.10E-01    0.1     0.04470635       -72.6730865535 -1.26E-03
   225 P_Mix/Diag. 0.10E-01    0.1     0.04425928       -72.6743377925 -1.25E-03
   226 P_Mix/Diag. 0.10E-01    0.1     0.04381669       -72.6755765190 -1.24E-03
   227 P_Mix/Diag. 0.10E-01    0.1     0.04337852       -72.6768028583 -1.23E-03
   228 P_Mix/Diag. 0.10E-01    0.1     0.04294474       -72.6780169343 -1.21E-03
   229 P_Mix/Diag. 0.10E-01    0.1     0.04251529       -72.6792188694 -1.20E-03
   230 P_Mix/Diag. 0.10E-01    0.1     0.04209014       -72.6804087852 -1.19E-03
   231 P_Mix/Diag. 0.10E-01    0.1     0.04166924       -72.6815868019 -1.18E-03
   232 P_Mix/Diag. 0.10E-01    0.1     0.04125254       -72.6827530384 -1.17E-03
   233 P_Mix/Diag. 0.10E-01    0.1     0.04084002       -72.6839076125 -1.15E-03
   234 P_Mix/Diag. 0.10E-01    0.1     0.04043162       -72.6850506408 -1.14E-03
   235 P_Mix/Diag. 0.10E-01    0.1     0.04002730       -72.6861822389 -1.13E-03
   236 P_Mix/Diag. 0.10E-01    0.1     0.03962703       -72.6873025210 -1.12E-03
   237 P_Mix/Diag. 0.10E-01    0.1     0.03923076       -72.6884116003 -1.11E-03
   238 P_Mix/Diag. 0.10E-01    0.1     0.03883845       -72.6895095888 -1.10E-03
   239 P_Mix/Diag. 0.10E-01    0.1     0.03845007       -72.6905965974 -1.09E-03
   240 P_Mix/Diag. 0.10E-01    0.1     0.03806557       -72.6916727360 -1.08E-03
   241 P_Mix/Diag. 0.10E-01    0.1     0.03768491       -72.6927381131 -1.07E-03
   242 P_Mix/Diag. 0.10E-01    0.1     0.03730806       -72.6937928365 -1.05E-03
   243 P_Mix/Diag. 0.10E-01    0.1     0.03693498       -72.6948370126 -1.04E-03
   244 P_Mix/Diag. 0.10E-01    0.1     0.03656563       -72.6958707470 -1.03E-03
   245 P_Mix/Diag. 0.10E-01    0.1     0.03619997       -72.6968941440 -1.02E-03
   246 P_Mix/Diag. 0.10E-01    0.1     0.03583797       -72.6979073071 -1.01E-03
   247 P_Mix/Diag. 0.10E-01    0.1     0.03547959       -72.6989103385 -1.00E-03
   248 P_Mix/Diag. 0.10E-01    0.1     0.03512480       -72.6999033396 -9.93E-04
   249 P_Mix/Diag. 0.10E-01    0.1     0.03477355       -72.7008864107 -9.83E-04
   250 P_Mix/Diag. 0.10E-01    0.1     0.03442582       -72.7018596511 -9.73E-04
   251 P_Mix/Diag. 0.10E-01    0.1     0.03408156       -72.7028231591 -9.64E-04
   252 P_Mix/Diag. 0.10E-01    0.1     0.03374074       -72.7037770320 -9.54E-04
   253 P_Mix/Diag. 0.10E-01    0.1     0.03340333       -72.7047213662 -9.44E-04
   254 P_Mix/Diag. 0.10E-01    0.1     0.03306930       -72.7056562570 -9.35E-04
   255 P_Mix/Diag. 0.10E-01    0.1     0.03273861       -72.7065817989 -9.26E-04
   256 P_Mix/Diag. 0.10E-01    0.1     0.03241122       -72.7074980854 -9.16E-04
   257 P_Mix/Diag. 0.10E-01    0.1     0.03208711       -72.7084052091 -9.07E-04
   258 P_Mix/Diag. 0.10E-01    0.1     0.03176624       -72.7093032615 -8.98E-04
   259 P_Mix/Diag. 0.10E-01    0.1     0.03144858       -72.7101923334 -8.89E-04
   260 P_Mix/Diag. 0.10E-01    0.1     0.03113409       -72.7110725146 -8.80E-04
   261 P_Mix/Diag. 0.10E-01    0.1     0.03082275       -72.7119438939 -8.71E-04
   262 P_Mix/Diag. 0.10E-01    0.1     0.03051452       -72.7128065595 -8.63E-04
   263 P_Mix/Diag. 0.10E-01    0.1     0.03020938       -72.7136605984 -8.54E-04
   264 P_Mix/Diag. 0.10E-01    0.1     0.02990728       -72.7145060969 -8.45E-04
   265 P_Mix/Diag. 0.10E-01    0.1     0.02960821       -72.7153431404 -8.37E-04
   266 P_Mix/Diag. 0.10E-01    0.1     0.02931213       -72.7161718135 -8.29E-04
   267 P_Mix/Diag. 0.10E-01    0.1     0.02901901       -72.7169921999 -8.20E-04
   268 P_Mix/Diag. 0.10E-01    0.1     0.02872882       -72.7178043824 -8.12E-04
   269 P_Mix/Diag. 0.10E-01    0.1     0.02844153       -72.7186084430 -8.04E-04
   270 P_Mix/Diag. 0.10E-01    0.1     0.02815711       -72.7194044631 -7.96E-04
   271 P_Mix/Diag. 0.10E-01    0.1     0.02787554       -72.7201925230 -7.88E-04
   272 P_Mix/Diag. 0.10E-01    0.1     0.02759679       -72.7209727023 -7.80E-04
   273 P_Mix/Diag. 0.10E-01    0.1     0.02732082       -72.7217450797 -7.72E-04
   274 P_Mix/Diag. 0.10E-01    0.1     0.02704761       -72.7225097334 -7.65E-04
   275 P_Mix/Diag. 0.10E-01    0.1     0.02677713       -72.7232667406 -7.57E-04
   276 P_Mix/Diag. 0.10E-01    0.1     0.02650936       -72.7240161777 -7.49E-04
   277 P_Mix/Diag. 0.10E-01    0.1     0.02624427       -72.7247581204 -7.42E-04
   278 P_Mix/Diag. 0.10E-01    0.1     0.02598183       -72.7254926437 -7.35E-04
   279 P_Mix/Diag. 0.10E-01    0.1     0.02572201       -72.7262198218 -7.27E-04
   280 P_Mix/Diag. 0.10E-01    0.1     0.02546479       -72.7269397280 -7.20E-04
   281 P_Mix/Diag. 0.10E-01    0.1     0.02521014       -72.7276524353 -7.13E-04
   282 P_Mix/Diag. 0.10E-01    0.1     0.02495804       -72.7283580154 -7.06E-04
   283 P_Mix/Diag. 0.10E-01    0.1     0.02470846       -72.7290565398 -6.99E-04
   284 P_Mix/Diag. 0.10E-01    0.1     0.02446137       -72.7297480789 -6.92E-04
   285 P_Mix/Diag. 0.10E-01    0.1     0.02421676       -72.7304327026 -6.85E-04
   286 P_Mix/Diag. 0.10E-01    0.1     0.02397459       -72.7311104800 -6.78E-04
   287 P_Mix/Diag. 0.10E-01    0.1     0.02373485       -72.7317814797 -6.71E-04
   288 P_Mix/Diag. 0.10E-01    0.1     0.02349750       -72.7324457694 -6.64E-04
   289 P_Mix/Diag. 0.10E-01    0.1     0.02326252       -72.7331034162 -6.58E-04
   290 P_Mix/Diag. 0.10E-01    0.1     0.02302990       -72.7337544866 -6.51E-04
   291 P_Mix/Diag. 0.10E-01    0.1     0.02279960       -72.7343990462 -6.45E-04
   292 P_Mix/Diag. 0.10E-01    0.1     0.02257160       -72.7350371603 -6.38E-04
   293 P_Mix/Diag. 0.10E-01    0.1     0.02234589       -72.7356688931 -6.32E-04
   294 P_Mix/Diag. 0.10E-01    0.1     0.02212243       -72.7362943087 -6.25E-04
   295 P_Mix/Diag. 0.10E-01    0.1     0.02190120       -72.7369134701 -6.19E-04
   296 P_Mix/Diag. 0.10E-01    0.1     0.02168219       -72.7375264399 -6.13E-04
   297 P_Mix/Diag. 0.10E-01    0.1     0.02146537       -72.7381332800 -6.07E-04
   298 P_Mix/Diag. 0.10E-01    0.1     0.02125072       -72.7387340517 -6.01E-04
   299 P_Mix/Diag. 0.10E-01    0.1     0.02103821       -72.7393288157 -5.95E-04
   300 P_Mix/Diag. 0.10E-01    0.1     0.02082783       -72.7399176320 -5.89E-04
   301 P_Mix/Diag. 0.10E-01    0.1     0.02061955       -72.7405005602 -5.83E-04
   302 P_Mix/Diag. 0.10E-01    0.1     0.02041335       -72.7410776591 -5.77E-04
   303 P_Mix/Diag. 0.10E-01    0.1     0.02020922       -72.7416489870 -5.71E-04
   304 P_Mix/Diag. 0.10E-01    0.1     0.02000713       -72.7422146017 -5.66E-04
   305 P_Mix/Diag. 0.10E-01    0.1     0.01980706       -72.7427745601 -5.60E-04
   306 P_Mix/Diag. 0.10E-01    0.1     0.01960899       -72.7433289190 -5.54E-04
   307 P_Mix/Diag. 0.10E-01    0.1     0.01941290       -72.7438777343 -5.49E-04
   308 P_Mix/Diag. 0.10E-01    0.1     0.01921877       -72.7444210615 -5.43E-04
   309 P_Mix/Diag. 0.10E-01    0.1     0.01902658       -72.7449589554 -5.38E-04
   310 P_Mix/Diag. 0.10E-01    0.1     0.01883631       -72.7454914703 -5.33E-04
   311 P_Mix/Diag. 0.10E-01    0.1     0.01864795       -72.7460186601 -5.27E-04
   312 P_Mix/Diag. 0.10E-01    0.1     0.01846147       -72.7465405780 -5.22E-04
   313 P_Mix/Diag. 0.10E-01    0.1     0.01827686       -72.7470572767 -5.17E-04
   314 P_Mix/Diag. 0.10E-01    0.1     0.01809409       -72.7475688085 -5.12E-04
   315 P_Mix/Diag. 0.10E-01    0.1     0.01791315       -72.7480752249 -5.06E-04
   316 P_Mix/Diag. 0.10E-01    0.1     0.01773402       -72.7485765771 -5.01E-04
   317 P_Mix/Diag. 0.10E-01    0.1     0.01755668       -72.7490729159 -4.96E-04
   318 P_Mix/Diag. 0.10E-01    0.1     0.01738111       -72.7495642912 -4.91E-04
   319 P_Mix/Diag. 0.10E-01    0.1     0.01720730       -72.7500507528 -4.86E-04
   320 P_Mix/Diag. 0.10E-01    0.1     0.01703522       -72.7505323498 -4.82E-04
   321 P_Mix/Diag. 0.10E-01    0.1     0.01686487       -72.7510091308 -4.77E-04
   322 P_Mix/Diag. 0.10E-01    0.1     0.01669622       -72.7514811440 -4.72E-04
   323 P_Mix/Diag. 0.10E-01    0.1     0.01652926       -72.7519484370 -4.67E-04
   324 P_Mix/Diag. 0.10E-01    0.1     0.01636397       -72.7524110571 -4.63E-04
   325 P_Mix/Diag. 0.10E-01    0.1     0.01620033       -72.7528690511 -4.58E-04
   326 P_Mix/Diag. 0.10E-01    0.1     0.01603833       -72.7533224651 -4.53E-04
   327 P_Mix/Diag. 0.10E-01    0.1     0.01587794       -72.7537713449 -4.49E-04
   328 P_Mix/Diag. 0.10E-01    0.1     0.01571916       -72.7542157360 -4.44E-04
   329 P_Mix/Diag. 0.10E-01    0.1     0.01556197       -72.7546556831 -4.40E-04
   330 P_Mix/Diag. 0.10E-01    0.1     0.01540635       -72.7550912308 -4.36E-04
   331 P_Mix/Diag. 0.10E-01    0.1     0.01525229       -72.7555224230 -4.31E-04
   332 P_Mix/Diag. 0.10E-01    0.1     0.01509977       -72.7559493032 -4.27E-04
   333 P_Mix/Diag. 0.10E-01    0.1     0.01494877       -72.7563719147 -4.23E-04
   334 P_Mix/Diag. 0.10E-01    0.1     0.01479928       -72.7567903000 -4.18E-04
   335 P_Mix/Diag. 0.10E-01    0.1     0.01465129       -72.7572045015 -4.14E-04
   336 P_Mix/Diag. 0.10E-01    0.1     0.01450477       -72.7576145610 -4.10E-04
   337 P_Mix/Diag. 0.10E-01    0.1     0.01435973       -72.7580205199 -4.06E-04
   338 P_Mix/Diag. 0.10E-01    0.1     0.01421613       -72.7584224192 -4.02E-04
   339 P_Mix/Diag. 0.10E-01    0.1     0.01407397       -72.7588202995 -3.98E-04
   340 P_Mix/Diag. 0.10E-01    0.1     0.01393323       -72.7592142010 -3.94E-04
   341 P_Mix/Diag. 0.10E-01    0.1     0.01379390       -72.7596041635 -3.90E-04
   342 P_Mix/Diag. 0.10E-01    0.1     0.01365596       -72.7599902264 -3.86E-04
   343 P_Mix/Diag. 0.10E-01    0.1     0.01351940       -72.7603724286 -3.82E-04
   344 P_Mix/Diag. 0.10E-01    0.1     0.01338420       -72.7607508088 -3.78E-04
   345 P_Mix/Diag. 0.10E-01    0.1     0.01325036       -72.7611254052 -3.75E-04
   346 P_Mix/Diag. 0.10E-01    0.1     0.01311786       -72.7614962557 -3.71E-04
   347 P_Mix/Diag. 0.10E-01    0.1     0.01298668       -72.7618633976 -3.67E-04
   348 P_Mix/Diag. 0.10E-01    0.1     0.01285681       -72.7622268681 -3.63E-04
   349 P_Mix/Diag. 0.10E-01    0.1     0.01272824       -72.7625867040 -3.60E-04
   350 P_Mix/Diag. 0.10E-01    0.1     0.01260096       -72.7629429414 -3.56E-04
   351 P_Mix/Diag. 0.10E-01    0.1     0.01247495       -72.7632956165 -3.53E-04
   352 P_Mix/Diag. 0.10E-01    0.1     0.01235020       -72.7636447648 -3.49E-04
   353 P_Mix/Diag. 0.10E-01    0.1     0.01222670       -72.7639904217 -3.46E-04
   354 P_Mix/Diag. 0.10E-01    0.1     0.01210443       -72.7643326220 -3.42E-04
   355 P_Mix/Diag. 0.10E-01    0.1     0.01198339       -72.7646714003 -3.39E-04
   356 P_Mix/Diag. 0.10E-01    0.1     0.01186356       -72.7650067907 -3.35E-04
   357 P_Mix/Diag. 0.10E-01    0.1     0.01174492       -72.7653388273 -3.32E-04
   358 P_Mix/Diag. 0.10E-01    0.1     0.01162747       -72.7656675436 -3.29E-04
   359 P_Mix/Diag. 0.10E-01    0.1     0.01151120       -72.7659929726 -3.25E-04
   360 P_Mix/Diag. 0.10E-01    0.1     0.01139608       -72.7663151474 -3.22E-04
   361 P_Mix/Diag. 0.10E-01    0.1     0.01128212       -72.7666341004 -3.19E-04
   362 P_Mix/Diag. 0.10E-01    0.1     0.01116930       -72.7669498639 -3.16E-04
   363 P_Mix/Diag. 0.10E-01    0.1     0.01105761       -72.7672624698 -3.13E-04
   364 P_Mix/Diag. 0.10E-01    0.1     0.01094703       -72.7675719496 -3.09E-04
   365 P_Mix/Diag. 0.10E-01    0.1     0.01083756       -72.7678783346 -3.06E-04
   366 P_Mix/Diag. 0.10E-01    0.1     0.01072919       -72.7681816557 -3.03E-04
   367 P_Mix/Diag. 0.10E-01    0.1     0.01062189       -72.7684819437 -3.00E-04
   368 P_Mix/Diag. 0.10E-01    0.1     0.01051568       -72.7687792287 -2.97E-04
   369 P_Mix/Diag. 0.10E-01    0.1     0.01041052       -72.7690735410 -2.94E-04
   370 P_Mix/Diag. 0.10E-01    0.1     0.01030641       -72.7693649100 -2.91E-04
   371 P_Mix/Diag. 0.10E-01    0.1     0.01020335       -72.7696533654 -2.88E-04
   372 P_Mix/Diag. 0.10E-01    0.1     0.01010132       -72.7699389363 -2.86E-04
   373 P_Mix/Diag. 0.10E-01    0.1     0.01000030       -72.7702216514 -2.83E-04
   374 P_Mix/Diag. 0.10E-01    0.1     0.00990030       -72.7705015394 -2.80E-04
   375 P_Mix/Diag. 0.10E-01    0.1     0.00980130       -72.7707786285 -2.77E-04
   376 P_Mix/Diag. 0.10E-01    0.1     0.00970328       -72.7710529467 -2.74E-04
   377 P_Mix/Diag. 0.10E-01    0.1     0.00960625       -72.7713245218 -2.72E-04
   378 P_Mix/Diag. 0.10E-01    0.1     0.00951019       -72.7715933810 -2.69E-04
   379 P_Mix/Diag. 0.10E-01    0.1     0.00941509       -72.7718595517 -2.66E-04
   380 P_Mix/Diag. 0.10E-01    0.1     0.00932094       -72.7721230607 -2.64E-04
   381 P_Mix/Diag. 0.10E-01    0.1     0.00922773       -72.7723839346 -2.61E-04
   382 P_Mix/Diag. 0.10E-01    0.1     0.00913545       -72.7726421998 -2.58E-04
   383 P_Mix/Diag. 0.10E-01    0.1     0.00904410       -72.7728978823 -2.56E-04
   384 P_Mix/Diag. 0.10E-01    0.1     0.00895365       -72.7731510079 -2.53E-04
   385 P_Mix/Diag. 0.10E-01    0.1     0.00886412       -72.7734016023 -2.51E-04
   386 P_Mix/Diag. 0.10E-01    0.1     0.00877548       -72.7736496908 -2.48E-04
   387 P_Mix/Diag. 0.10E-01    0.1     0.00868772       -72.7738952984 -2.46E-04
   388 P_Mix/Diag. 0.10E-01    0.1     0.00860084       -72.7741384499 -2.43E-04
   389 P_Mix/Diag. 0.10E-01    0.1     0.00851484       -72.7743791699 -2.41E-04
   390 P_Mix/Diag. 0.10E-01    0.1     0.00842969       -72.7746174827 -2.38E-04
   391 P_Mix/Diag. 0.10E-01    0.1     0.00834539       -72.7748534124 -2.36E-04
   392 P_Mix/Diag. 0.10E-01    0.1     0.00826194       -72.7750869828 -2.34E-04
   393 P_Mix/Diag. 0.10E-01    0.1     0.00817932       -72.7753182174 -2.31E-04
   394 P_Mix/Diag. 0.10E-01    0.1     0.00809752       -72.7755471398 -2.29E-04
   395 P_Mix/Diag. 0.10E-01    0.1     0.00801655       -72.7757737729 -2.27E-04
   396 P_Mix/Diag. 0.10E-01    0.1     0.00793638       -72.7759981396 -2.24E-04
   397 P_Mix/Diag. 0.10E-01    0.1     0.00785702       -72.7762202627 -2.22E-04
   398 P_Mix/Diag. 0.10E-01    0.1     0.00777845       -72.7764401646 -2.20E-04
   399 P_Mix/Diag. 0.10E-01    0.1     0.00770066       -72.7766578675 -2.18E-04
   400 P_Mix/Diag. 0.10E-01    0.1     0.00762366       -72.7768733933 -2.16E-04
   401 P_Mix/Diag. 0.10E-01    0.1     0.00754742       -72.7770867639 -2.13E-04
   402 P_Mix/Diag. 0.10E-01    0.1     0.00747195       -72.7772980007 -2.11E-04
   403 P_Mix/Diag. 0.10E-01    0.1     0.00739723       -72.7775071252 -2.09E-04
   404 P_Mix/Diag. 0.10E-01    0.1     0.00732326       -72.7777141585 -2.07E-04
   405 P_Mix/Diag. 0.10E-01    0.1     0.00725002       -72.7779191214 -2.05E-04
   406 P_Mix/Diag. 0.10E-01    0.1     0.00717752       -72.7781220347 -2.03E-04
   407 P_Mix/Diag. 0.10E-01    0.1     0.00710575       -72.7783229188 -2.01E-04
   408 P_Mix/Diag. 0.10E-01    0.1     0.00703469       -72.7785217941 -1.99E-04
   409 P_Mix/Diag. 0.10E-01    0.1     0.00696434       -72.7787186807 -1.97E-04
   410 P_Mix/Diag. 0.10E-01    0.1     0.00689470       -72.7789135984 -1.95E-04
   411 P_Mix/Diag. 0.10E-01    0.1     0.00682575       -72.7791065669 -1.93E-04
   412 P_Mix/Diag. 0.10E-01    0.1     0.00675750       -72.7792976057 -1.91E-04
   413 P_Mix/Diag. 0.10E-01    0.1     0.00668992       -72.7794867342 -1.89E-04
   414 P_Mix/Diag. 0.10E-01    0.1     0.00662302       -72.7796739713 -1.87E-04
   415 P_Mix/Diag. 0.10E-01    0.1     0.00655679       -72.7798593361 -1.85E-04
   416 P_Mix/Diag. 0.10E-01    0.1     0.00649122       -72.7800428472 -1.84E-04
   417 P_Mix/Diag. 0.10E-01    0.1     0.00642631       -72.7802245233 -1.82E-04
   418 P_Mix/Diag. 0.10E-01    0.1     0.00636205       -72.7804043825 -1.80E-04
   419 P_Mix/Diag. 0.10E-01    0.1     0.00629843       -72.7805824432 -1.78E-04
   420 P_Mix/Diag. 0.10E-01    0.1     0.00623544       -72.7807587233 -1.76E-04
   421 P_Mix/Diag. 0.10E-01    0.1     0.00617309       -72.7809332405 -1.75E-04
   422 P_Mix/Diag. 0.10E-01    0.1     0.00611136       -72.7811060126 -1.73E-04
   423 P_Mix/Diag. 0.10E-01    0.1     0.00605024       -72.7812770570 -1.71E-04
   424 P_Mix/Diag. 0.10E-01    0.1     0.00598974       -72.7814463909 -1.69E-04
   425 P_Mix/Diag. 0.10E-01    0.1     0.00592984       -72.7816140315 -1.68E-04
   426 P_Mix/Diag. 0.10E-01    0.1     0.00587055       -72.7817799957 -1.66E-04
   427 P_Mix/Diag. 0.10E-01    0.1     0.00581184       -72.7819443002 -1.64E-04
   428 P_Mix/Diag. 0.10E-01    0.1     0.00575372       -72.7821069617 -1.63E-04
   429 P_Mix/Diag. 0.10E-01    0.1     0.00569618       -72.7822679966 -1.61E-04
   430 P_Mix/Diag. 0.10E-01    0.1     0.00563922       -72.7824274212 -1.59E-04
   431 P_Mix/Diag. 0.10E-01    0.1     0.00558283       -72.7825852514 -1.58E-04
   432 P_Mix/Diag. 0.10E-01    0.1     0.00552700       -72.7827415034 -1.56E-04
   433 P_Mix/Diag. 0.10E-01    0.1     0.00547173       -72.7828961929 -1.55E-04
   434 P_Mix/Diag. 0.10E-01    0.1     0.00541702       -72.7830493355 -1.53E-04
   435 P_Mix/Diag. 0.10E-01    0.1     0.00536284       -72.7832009466 -1.52E-04
   436 P_Mix/Diag. 0.10E-01    0.1     0.00530922       -72.7833510416 -1.50E-04
   437 P_Mix/Diag. 0.10E-01    0.1     0.00525612       -72.7834996357 -1.49E-04
   438 P_Mix/Diag. 0.10E-01    0.1     0.00520356       -72.7836467439 -1.47E-04
   439 P_Mix/Diag. 0.10E-01    0.1     0.00515153       -72.7837923809 -1.46E-04
   440 P_Mix/Diag. 0.10E-01    0.1     0.00510001       -72.7839365616 -1.44E-04
   441 P_Mix/Diag. 0.10E-01    0.1     0.00504901       -72.7840793005 -1.43E-04
   442 P_Mix/Diag. 0.10E-01    0.1     0.00499852       -72.7842206120 -1.41E-04
   443 P_Mix/Diag. 0.10E-01    0.1     0.00494854       -72.7843605104 -1.40E-04
   444 P_Mix/Diag. 0.10E-01    0.1     0.00489905       -72.7844990098 -1.38E-04
   445 P_Mix/Diag. 0.10E-01    0.1     0.00485006       -72.7846361242 -1.37E-04
   446 P_Mix/Diag. 0.10E-01    0.1     0.00480156       -72.7847718674 -1.36E-04
   447 P_Mix/Diag. 0.10E-01    0.1     0.00475354       -72.7849062532 -1.34E-04
   448 P_Mix/Diag. 0.10E-01    0.1     0.00470601       -72.7850392952 -1.33E-04
   449 P_Mix/Diag. 0.10E-01    0.1     0.00465895       -72.7851710068 -1.32E-04
   450 P_Mix/Diag. 0.10E-01    0.1     0.00461236       -72.7853014012 -1.30E-04
   451 P_Mix/Diag. 0.10E-01    0.1     0.00456624       -72.7854304917 -1.29E-04
   452 P_Mix/Diag. 0.10E-01    0.1     0.00452057       -72.7855582913 -1.28E-04
   453 P_Mix/Diag. 0.10E-01    0.1     0.00447537       -72.7856848128 -1.27E-04
   454 P_Mix/Diag. 0.10E-01    0.1     0.00443061       -72.7858100692 -1.25E-04
   455 P_Mix/Diag. 0.10E-01    0.1     0.00438631       -72.7859340730 -1.24E-04
   456 P_Mix/Diag. 0.10E-01    0.1     0.00434244       -72.7860568368 -1.23E-04
   457 P_Mix/Diag. 0.10E-01    0.1     0.00429902       -72.7861783729 -1.22E-04
   458 P_Mix/Diag. 0.10E-01    0.1     0.00425603       -72.7862986937 -1.20E-04
   459 P_Mix/Diag. 0.10E-01    0.1     0.00421347       -72.7864178113 -1.19E-04
   460 P_Mix/Diag. 0.10E-01    0.1     0.00417134       -72.7865357376 -1.18E-04
   461 P_Mix/Diag. 0.10E-01    0.1     0.00412962       -72.7866524848 -1.17E-04
   462 P_Mix/Diag. 0.10E-01    0.1     0.00408833       -72.7867680644 -1.16E-04
   463 P_Mix/Diag. 0.10E-01    0.1     0.00404744       -72.7868824883 -1.14E-04
   464 P_Mix/Diag. 0.10E-01    0.1     0.00400697       -72.7869957679 -1.13E-04
   465 P_Mix/Diag. 0.10E-01    0.1     0.00396690       -72.7871079147 -1.12E-04
   466 P_Mix/Diag. 0.10E-01    0.1     0.00392723       -72.7872189401 -1.11E-04
   467 P_Mix/Diag. 0.10E-01    0.1     0.00388796       -72.7873288552 -1.10E-04
   468 P_Mix/Diag. 0.10E-01    0.1     0.00384908       -72.7874376711 -1.09E-04
   469 P_Mix/Diag. 0.10E-01    0.1     0.00381059       -72.7875453989 -1.08E-04
   470 P_Mix/Diag. 0.10E-01    0.1     0.00377248       -72.7876520494 -1.07E-04
   471 P_Mix/Diag. 0.10E-01    0.1     0.00373476       -72.7877576334 -1.06E-04
   472 P_Mix/Diag. 0.10E-01    0.1     0.00369741       -72.7878621616 -1.05E-04
   473 P_Mix/Diag. 0.10E-01    0.1     0.00366043       -72.7879656445 -1.03E-04
   474 P_Mix/Diag. 0.10E-01    0.1     0.00362383       -72.7880680925 -1.02E-04
   475 P_Mix/Diag. 0.10E-01    0.1     0.00358759       -72.7881695161 -1.01E-04
   476 P_Mix/Diag. 0.10E-01    0.1     0.00355172       -72.7882699254 -1.00E-04
   477 P_Mix/Diag. 0.10E-01    0.1     0.00351620       -72.7883693307 -9.94E-05
   478 P_Mix/Diag. 0.10E-01    0.1     0.00348104       -72.7884677419 -9.84E-05
   479 P_Mix/Diag. 0.10E-01    0.1     0.00344623       -72.7885651689 -9.74E-05
   480 P_Mix/Diag. 0.10E-01    0.1     0.00341176       -72.7886616217 -9.65E-05
   481 P_Mix/Diag. 0.10E-01    0.1     0.00337765       -72.7887571100 -9.55E-05
   482 P_Mix/Diag. 0.10E-01    0.1     0.00334387       -72.7888516434 -9.45E-05
   483 P_Mix/Diag. 0.10E-01    0.1     0.00331043       -72.7889452315 -9.36E-05
   484 P_Mix/Diag. 0.10E-01    0.1     0.00327733       -72.7890378837 -9.27E-05
   485 P_Mix/Diag. 0.10E-01    0.1     0.00324455       -72.7891296093 -9.17E-05
   486 P_Mix/Diag. 0.10E-01    0.1     0.00321211       -72.7892204177 -9.08E-05
   487 P_Mix/Diag. 0.10E-01    0.1     0.00317999       -72.7893103181 -8.99E-05
   488 P_Mix/Diag. 0.10E-01    0.1     0.00314819       -72.7893993194 -8.90E-05
   489 P_Mix/Diag. 0.10E-01    0.1     0.00311671       -72.7894874307 -8.81E-05
   490 P_Mix/Diag. 0.10E-01    0.1     0.00308554       -72.7895746609 -8.72E-05
   491 P_Mix/Diag. 0.10E-01    0.1     0.00305468       -72.7896610188 -8.64E-05
   492 P_Mix/Diag. 0.10E-01    0.1     0.00302414       -72.7897465131 -8.55E-05
   493 P_Mix/Diag. 0.10E-01    0.1     0.00299389       -72.7898311525 -8.46E-05
   494 P_Mix/Diag. 0.10E-01    0.1     0.00296396       -72.7899149454 -8.38E-05
   495 P_Mix/Diag. 0.10E-01    0.1     0.00293432       -72.7899979005 -8.30E-05
   496 P_Mix/Diag. 0.10E-01    0.1     0.00290497       -72.7900800260 -8.21E-05
   497 P_Mix/Diag. 0.10E-01    0.1     0.00287592       -72.7901613302 -8.13E-05
   498 P_Mix/Diag. 0.10E-01    0.1     0.00284716       -72.7902418214 -8.05E-05
   499 P_Mix/Diag. 0.10E-01    0.1     0.00281869       -72.7903215077 -7.97E-05
   500 P_Mix/Diag. 0.10E-01    0.1     0.00279051       -72.7904003971 -7.89E-05
   501 DIIS/Diag.  0.67E-15    0.1     0.00276260       -72.7904784976 -7.81E-05
   502 DIIS/Diag.  0.18E-14    0.1     1.3545E-14       -72.7982104499 -7.73E-03

  *** SCF run converged in   502 steps ***


  Core Hamiltonian energy:                                    -72.48373163619613
  Repulsive potential energy:                                  -0.31367314619856
  Electronic energy:                                            0.00000000000000
  Dispersion energy:                                           -0.00080566749240
  Electronic entropic energy:                                  -0.00029957349095
  Fermi energy:                                                -0.21889072718826

  Total energy:                                               -72.79821044988709

 ENERGY| Total FORCE_EVAL ( QS ) energy (a.u.):              -72.798210449887094


 -------------------------------------------------------------------------------
 -                                                                             -
 -                                DBCSR STATISTICS                             -
 -                                                                             -
 -------------------------------------------------------------------------------
 COUNTER                                    TOTAL       BLAS       SMM       ACC
 flops     9 x     9 x   234           1979100864     100.0%      0.0%      0.0%
 flops inhomo. stacks                           0       0.0%      0.0%      0.0%
 flops total                         1.979101E+09     100.0%      0.0%      0.0%
 flops max/rank                      1.979101E+09     100.0%      0.0%      0.0%
 matmuls inhomo. stacks                         0       0.0%      0.0%      0.0%
 matmuls total                              52208     100.0%      0.0%      0.0%
 number of processed stacks                   502     100.0%      0.0%      0.0%
 average stack size                                   104.0       0.0       0.0
 marketing flops                     8.081345E+09
 -------------------------------------------------------------------------------
 # multiplications                            502
 max memory usage/rank              59.355136E+06
 # max total images/rank                        1
 # max 3D layers                                1
 # MPI messages exchanged                       0
 MPI messages size (bytes):
  total size                         0.000000E+00
  min size                           0.000000E+00
  max size                           0.000000E+00
  average size                       0.000000E+00
 MPI breakdown and total messages size (bytes):
             size <=      128                   0                        0
       128 < size <=     8192                   0                        0
      8192 < size <=    32768                   0                        0
     32768 < size <=   131072                   0                        0
    131072 < size <=  4194304                   0                        0
   4194304 < size <= 16777216                   0                        0
  16777216 < size                               0                        0
 -------------------------------------------------------------------------------

 MEMORY| Estimated peak process memory [MiB]                                  58

 -------------------------------------------------------------------------------
 -                                                                             -
 -                         MESSAGE PASSING PERFORMANCE                         -
 -                                                                             -
 -------------------------------------------------------------------------------

 ROUTINE             CALLS      AVE VOLUME [Bytes]
 MP_Group             1007
 MP_Bcast              523                    290.
 MP_Allreduce         7579                  29049.
 MP_Sync               504
 MP_Alltoall         20080                 138125.
 MP_Wait             12048
 MP_ISend             2008                   4160.
 MP_IRecv             2008                   4160.
 MP_Memory           42168
 -------------------------------------------------------------------------------


 -------------------------------------------------------------------------------
 -                                                                             -
 -                           R E F E R E N C E S                               -
 -                                                                             -
 -------------------------------------------------------------------------------
 
 CP2K version 7.0 (Development Version), the CP2K developers group (2018).
 CP2K is freely available from https://www.cp2k.org/ .

 Schuett, Ole; Messmer, Peter; Hutter, Juerg; VandeVondele, Joost. 
 Electronic Structure Calculations on Graphics Processing Units, John Wiley & Sons, Ltd, 173-190 (2016). 
 GPU-Accelerated Sparse Matrix-Matrix Multiplication for Linear Scaling Density Functional Theory.
 https://dx.doi.org/10.1002/9781118670712.ch8


 Borstnik, U; VandeVondele, J; Weber, V; Hutter, J. 
 PARALLEL COMPUTING, 40 (5-6), 47-58 (2014). 
 Sparse matrix multiplication: The distributed block-compressed sparse
 row library.
 https://dx.doi.org/10.1016/j.parco.2014.03.012


 Hutter, J; Iannuzzi, M; Schiffmann, F; VandeVondele, J. 
 WILEY INTERDISCIPLINARY REVIEWS-COMPUTATIONAL MOLECULAR SCIENCE, 4 (1), 15-25 (2014). 
 CP2K: atomistic simulations of condensed matter systems.
 https://dx.doi.org/10.1002/wcms.1159


 Zhechkov, L; Heine, T; Patchkovskii, S; Seifert, G; Duarte, HA. 
 JOURNAL OF CHEMICAL THEORY AND COMPUTATION, 1 (5), 841-847 (2005). 
 An efficient a Posteriori treatment for dispersion interaction in
 density-functional-based tight binding.
 https://dx.doi.org/10.1021/ct050065y


 Frigo, M; Johnson, SG. 
 PROCEEDINGS OF THE IEEE, 93 (2), 216-231 (2005). 
 The design and implementation of FFTW3.
 https://dx.doi.org/10.1109/JPROC.2004.840301


 Elstner, M; Porezag, D; Jungnickel, G; Elsner, J; Haugk, M;
 Frauenheim, T; Suhai, S; Seifert, G. 
 PHYSICAL REVIEW B, 58 (11), 7260-7268 (1998). 
 Self-consistent-charge density-functional tight-binding method for
 simulations of complex materials properties.
 https://dx.doi.org/10.1103/PhysRevB.58.7260


 Seifert, G; Porezag, D; Frauenheim, T. 
 INTERNATIONAL JOURNAL OF QUANTUM CHEMISTRY, 58 (2), 185-192 (1996). 
 Calculations of molecules, clusters, and solids with a simplified
 LCAO-DFT-LDA scheme.
 https://dx.doi.org/10.1002/(SICI)1097-461X(1996)58:2<185::AID-QUA7>3.0.CO;2-U


 POREZAG, D; FRAUENHEIM, T; KOHLER, T; SEIFERT, G; KASCHNER, R. 
 PHYSICAL REVIEW B, 51 (19), 12947-12957 (1995). 
 CONSTRUCTION OF TIGHT-BINDING-LIKE POTENTIALS ON THE BASIS OF
 DENSITY-FUNCTIONAL THEORY - APPLICATION TO CARBON.
 https://dx.doi.org/10.1103/PhysRevB.51.12947


 -------------------------------------------------------------------------------
 -                                                                             -
 -                                T I M I N G                                  -
 -                                                                             -
 -------------------------------------------------------------------------------
 SUBROUTINE                       CALLS  ASD         SELF TIME        TOTAL TIME
                                MAXIMUM       AVERAGE  MAXIMUM  AVERAGE  MAXIMUM
 CP2K                                 1  1.0    0.003    0.003   46.062   46.062
 qs_energies                          1  2.0    0.000    0.000   46.022   46.022
 scf_env_do_scf                       1  3.0    0.000    0.000   46.017   46.017
 scf_env_do_scf_inner_loop          502  4.0    0.035    0.035   46.016   46.016
 qs_scf_loop_print                  502  5.0   25.976   25.976   26.050   26.050
 qs_scf_new_mos                     502  5.0    0.006    0.006   14.194   14.194
 eigensolver                        502  6.0    0.016    0.016    7.299    7.299
 qs_ks_update_qs_env                502  5.0    0.002    0.002    5.426    5.426
 rebuild_ks_matrix                  502  6.0    0.001    0.001    5.414    5.414
 build_dftb_ks_matrix               502  7.0    0.006    0.006    5.413    5.413
 build_dftb_coulomb                 502  8.0    0.028    0.028    5.380    5.380
 dftb_spme_evaluate                 502  9.0    0.194    0.194    5.328    5.328
 cp_fm_syevd                        502  7.0    0.002    0.002    5.093    5.093
 cp_fm_syevd_base                   502  8.0    5.090    5.090    5.090    5.090
 pw_transfer                       3514 10.7    0.080    0.080    4.831    4.831
 fft_wrap_pw1pw2                   1004 11.0    0.004    0.004    4.714    4.714
 fft_wrap_pw1pw2_10                1004 12.0    0.262    0.262    4.709    4.709
 fft3d_s                           1005 13.0    4.059    4.059    4.061    4.061
 qs_diis_b_step                     501  6.0    0.011    0.011    3.458    3.458
 calculate_dm_sparse                502  6.0    0.012    0.012    2.677    2.677
 cp_dbcsr_plus_fm_fm_t_native       502  7.0    0.005    0.005    2.626    2.626
 cp_fm_cholesky_restore            1506  7.0    1.885    1.885    1.885    1.885
 dbcsr_complete_redistribute       2008  8.2    0.720    0.720    1.448    1.448
 cp_fm_symm                        1002  7.0    1.401    1.401    1.401    1.401
 dbcsr_multiply_generic             502  8.0    0.021    0.021    1.347    1.347
 copy_fm_to_dbcsr                  1004  8.0    0.003    0.003    1.264    1.264
 cp_gemm                           1002  7.0    0.002    0.002    1.233    1.233
 cp_gemm_fm_gemm                   1002  8.0    0.001    0.001    1.231    1.231
 cp_fm_gemm                        1002  9.0    1.230    1.230    1.230    1.230
 -------------------------------------------------------------------------------

 The number of warnings for this run is : 2
 
 -------------------------------------------------------------------------------
  **** **** ******  **  PROGRAM ENDED AT                 2019-07-15 16:43:15.223
 ***** ** ***  *** **   PROGRAM RAN ON                login4.colonialone.gwu.edu
 **    ****   ******    PROGRAM RAN BY                                  zanghang
 ***** **    ** ** **   PROGRAM PROCESS ID                                  9433
  **** **  *******  **  PROGRAM STOPPED IN /home/zanghang/new-Benchmark-cp2k-Kwa
                                           nt-device-2-Au
