 DBCSR| Multiplication driver                                               BLAS
 DBCSR| Multrec recursion limit                                              512
 DBCSR| Multiplication stack size                                           1000
 DBCSR| Maximum elements for images                                    UNLIMITED
 DBCSR| Multiplicative factor virtual images                                   1
 DBCSR| Multiplication size stacks                                             3
 DBCSR| Number of 3D layers                                               SINGLE
 DBCSR| Use MPI memory allocation                                              T
 DBCSR| Use RMA algorithm                                                      F
 DBCSR| Use Communication thread                                               T
 DBCSR| Communication thread load                                             87


  **** **** ******  **  PROGRAM STARTED AT               2019-07-15 16:34:53.848
 ***** ** ***  *** **   PROGRAM STARTED ON            login4.colonialone.gwu.edu
 **    ****   ******    PROGRAM STARTED BY                              zanghang
 ***** **    ** ** **   PROGRAM PROCESS ID                                  1558
  **** **  *******  **  PROGRAM STARTED IN /home/zanghang/new-Benchmark-cp2k-Kwa
                                           nt-electrode

 CP2K| version string:                    CP2K version 7.0 (Development Version)
 CP2K| source code revision number:                                             
 CP2K| cp2kflags: libint fftw3 libxc parallel mpi3 scalapack libderiv_max_am1=5 
 CP2K|            libint_max_am=6
 CP2K| is freely available from                            https://www.cp2k.org/
 CP2K| Program compiled at                          Fri Oct 26 19:29:23 EDT 2018
 CP2K| Program compiled on                            login3.colonialone.gwu.edu
 CP2K| Program compiled for                                                local
 CP2K| Data directory path                     /home/zanghang/program2/cp2k/data
 CP2K| Input file name                                             electrode.inp

 GLOBAL| Force Environment number                                              1
 GLOBAL| Basis set file name                                           BASIS_SET
 GLOBAL| Potential file name                                           POTENTIAL
 GLOBAL| MM Potential file name                                     MM_POTENTIAL
 GLOBAL| Coordinate file name                                      __STD_INPUT__
 GLOBAL| Method name                                                        CP2K
 GLOBAL| Project name                                                       TEST
 GLOBAL| Preferred FFT library                                             FFTW3
 GLOBAL| Preferred diagonalization lib.                                       SL
 GLOBAL| Run type                                                         ENERGY
 GLOBAL| All-to-all communication in single precision                          F
 GLOBAL| FFTs using library dependent lengths                                  F
 GLOBAL| Global print level                                                  LOW
 GLOBAL| MPI I/O enabled                                                       T
 GLOBAL| Total number of message passing processes                             1
 GLOBAL| Number of threads for this process                                    1
 GLOBAL| This output is from process                                           0
 GLOBAL| CPU model name :  Intel(R) Xeon(R) CPU E5-2670 0 @ 2.60GHz

 MEMORY| system memory details [Kb]
 MEMORY|                        rank 0           min           max       average
 MEMORY| MemTotal             66056956      66056956      66056956      66056956
 MEMORY| MemFree               3610516       3610516       3610516       3610516
 MEMORY| Buffers                108504        108504        108504        108504
 MEMORY| Cached               56413648      56413648      56413648      56413648
 MEMORY| Slab                  3905856       3905856       3905856       3905856
 MEMORY| SReclaimable           242256        242256        242256        242256
 MEMORY| MemLikelyFree        60374924      60374924      60374924      60374924


 GENERATE|  Preliminary Number of Bonds generated:                             0
 GENERATE|  Achieved consistency in connectivity generation.


              #####   #####        # ######  ####### ####### ######   
             #     # #     #      #  #     # #          #    #     #  
             #     # #           #   #     # #          #    #     #  
             #     #  #####     #    #     # #####      #    ######   
             #   # #       #   #     #     # #          #    #     #  
             #    #  #     #  #      #     # #          #    #     #  
              #### #  #####  #       ######  #          #    ######   
                                                                      
                                    Version 0.2                       
                               J. Hutter and T. Heine                 
                                                                      


 EWALD| Summation is done by:                                               SPME
 EWALD| Alpha parameter [       ANGSTROM^-1]                              0.3500
 EWALD| Real Space Cutoff [          ANGSTROM]                            9.6398
 EWALD| G-space max. Miller index                         51        51        51
 EWALD| Spline interpolation order                                             5

 *** WARNING in qs_environment.F:1146 :: More added MOs requested than ***
 *** available. The full set of unoccupied MOs will be used.           ***



 TOTAL NUMBERS AND MAXIMUM NUMBERS

  Total number of            - Atomic kinds:                                   1
                             - Atoms:                                         24
                             - Shell sets:                                     0
                             - Shells:                                        72
                             - Primitive Cartesian functions:                  0
                             - Cartesian basis functions:                    240
                             - Spherical basis functions:                    216

  Maximum angular momentum of the orbital basis functions:                     2

  LRI_AUX Basis: 
  Total number of            - Shell sets:                                     0
                             - Shells:                                        72
                             - Primitive Cartesian functions:                  0
                             - Cartesian basis functions:                    240
                             - Spherical basis functions:                    216
                               Maximum angular momentum                        2

  RI_HXC Basis: 
  Total number of            - Shell sets:                                     0
                             - Shells:                                        72
                             - Primitive Cartesian functions:                  0
                             - Cartesian basis functions:                    240
                             - Spherical basis functions:                    216
                               Maximum angular momentum                        2

  AUX_FIT ADMM-Basis: 
  Total number of            - Shell sets:                                     0
                             - Shells:                                        72
                             - Primitive Cartesian functions:                  0
                             - Cartesian basis functions:                    240
                             - Spherical basis functions:                    216
                               Maximum angular momentum                        2


 SCF PARAMETERS         Density guess:                                   RESTART
                        --------------------------------------------------------
                        max_scf:                                             800
                        max_scf_history:                                       0
                        max_diis:                                              4
                        --------------------------------------------------------
                        eps_scf:                                        1.00E-06
                        eps_scf_history:                                0.00E+00
                        eps_diis:                                       1.00E-01
                        eps_eigval:                                     1.00E-05
                        --------------------------------------------------------
                        level_shift [a.u.]:                                 0.00
                        added MOs                                        84    0
                        --------------------------------------------------------
                        Mixing method:                           DIRECT_P_MIXING
                        --------------------------------------------------------
                        Smear method:                                FERMI_DIRAC
                        Electronic temperature [K]:                        293.0
                        Electronic temperature [a.u.]:                  9.28E-04
                        Accuracy threshold:                             1.00E-10
                        --------------------------------------------------------
                        No outer SCF

 Number of electrons:                                                        264
 Number of occupied orbitals:                                                132
 Number of molecular orbitals:                                               216

 Number of orbital functions:                                                216
 Number of independent orbital functions:                                    216

 Extrapolation method: initial_guess

 *** WARNING in qs_initial_guess.F:263 :: User requested to restart the    ***
 *** wavefunction from the file named: TEST-RESTART_0.wfn. This file does  ***
 *** not exist. Please check the existence of the file or change properly  ***
 *** the value of the keyword WFN_RESTART_FILE_NAME. Calculation continues ***
 *** using ATOMIC GUESS.                                                   ***



 SCF WAVEFUNCTION OPTIMIZATION

  Step     Update method      Time    Convergence         Total energy    Change
  ------------------------------------------------------------------------------
     1 P_Mix/Diag. 0.10E-01    0.1     0.41640650       -66.1120981852 -6.61E+01
     2 P_Mix/Diag. 0.10E-01    0.1     0.41224244       -66.1229156565 -1.08E-02
     3 P_Mix/Diag. 0.10E-01    0.1     0.40812001       -66.1336249530 -1.07E-02
     4 P_Mix/Diag. 0.10E-01    0.1     0.40403881       -66.1442271566 -1.06E-02
     5 P_Mix/Diag. 0.10E-01    0.1     0.39999842       -66.1547233382 -1.05E-02
     6 P_Mix/Diag. 0.10E-01    0.1     0.39599844       -66.1651145580 -1.04E-02
     7 P_Mix/Diag. 0.10E-01    0.1     0.39203845       -66.1754018655 -1.03E-02
     8 P_Mix/Diag. 0.10E-01    0.1     0.38811807       -66.1855863000 -1.02E-02
     9 P_Mix/Diag. 0.10E-01    0.1     0.38423689       -66.1956688902 -1.01E-02
    10 P_Mix/Diag. 0.10E-01    0.1     0.38039452       -66.2056506544 -9.98E-03
    11 P_Mix/Diag. 0.10E-01    0.1     0.37659058       -66.2155326010 -9.88E-03
    12 P_Mix/Diag. 0.10E-01    0.1     0.37282467       -66.2253157281 -9.78E-03
    13 P_Mix/Diag. 0.10E-01    0.1     0.36909642       -66.2350010240 -9.69E-03
    14 P_Mix/Diag. 0.10E-01    0.1     0.36540546       -66.2445894669 -9.59E-03
    15 P_Mix/Diag. 0.10E-01    0.1     0.36175140       -66.2540820254 -9.49E-03
    16 P_Mix/Diag. 0.10E-01    0.1     0.35813389       -66.2634796583 -9.40E-03
    17 P_Mix/Diag. 0.10E-01    0.1     0.35455255       -66.2727833148 -9.30E-03
    18 P_Mix/Diag. 0.10E-01    0.1     0.35100703       -66.2819939348 -9.21E-03
    19 P_Mix/Diag. 0.10E-01    0.1     0.34749696       -66.2911124486 -9.12E-03
    20 P_Mix/Diag. 0.10E-01    0.1     0.34402199       -66.3001397773 -9.03E-03
    21 P_Mix/Diag. 0.10E-01    0.1     0.34058177       -66.3090768326 -8.94E-03
    22 P_Mix/Diag. 0.10E-01    0.1     0.33717595       -66.3179245174 -8.85E-03
    23 P_Mix/Diag. 0.10E-01    0.1     0.33380419       -66.3266837254 -8.76E-03
    24 P_Mix/Diag. 0.10E-01    0.1     0.33046615       -66.3353553413 -8.67E-03
    25 P_Mix/Diag. 0.10E-01    0.1     0.32716149       -66.3439402410 -8.58E-03
    26 P_Mix/Diag. 0.10E-01    0.1     0.32388987       -66.3524392918 -8.50E-03
    27 P_Mix/Diag. 0.10E-01    0.1     0.32065097       -66.3608533520 -8.41E-03
    28 P_Mix/Diag. 0.10E-01    0.1     0.31744446       -66.3691832716 -8.33E-03
    29 P_Mix/Diag. 0.10E-01    0.1     0.31427002       -66.3774298920 -8.25E-03
    30 P_Mix/Diag. 0.10E-01    0.1     0.31112732       -66.3855940463 -8.16E-03
    31 P_Mix/Diag. 0.10E-01    0.1     0.30801604       -66.3936765589 -8.08E-03
    32 P_Mix/Diag. 0.10E-01    0.1     0.30493588       -66.4016782465 -8.00E-03
    33 P_Mix/Diag. 0.10E-01    0.1     0.30188652       -66.4095999172 -7.92E-03
    34 P_Mix/Diag. 0.10E-01    0.1     0.29886766       -66.4174423711 -7.84E-03
    35 P_Mix/Diag. 0.10E-01    0.1     0.29587898       -66.4252064006 -7.76E-03
    36 P_Mix/Diag. 0.10E-01    0.1     0.29292019       -66.4328927897 -7.69E-03
    37 P_Mix/Diag. 0.10E-01    0.1     0.28999099       -66.4405023149 -7.61E-03
    38 P_Mix/Diag. 0.10E-01    0.1     0.28709108       -66.4480357449 -7.53E-03
    39 P_Mix/Diag. 0.10E-01    0.1     0.28422017       -66.4554938406 -7.46E-03
    40 P_Mix/Diag. 0.10E-01    0.1     0.28137797       -66.4628773554 -7.38E-03
    41 P_Mix/Diag. 0.10E-01    0.1     0.27856419       -66.4701870349 -7.31E-03
    42 P_Mix/Diag. 0.10E-01    0.1     0.27577855       -66.4774236177 -7.24E-03
    43 P_Mix/Diag. 0.10E-01    0.1     0.27302076       -66.4845878347 -7.16E-03
    44 P_Mix/Diag. 0.10E-01    0.1     0.27029055       -66.4916804095 -7.09E-03
    45 P_Mix/Diag. 0.10E-01    0.1     0.26758765       -66.4987020585 -7.02E-03
    46 P_Mix/Diag. 0.10E-01    0.1     0.26491177       -66.5056534911 -6.95E-03
    47 P_Mix/Diag. 0.10E-01    0.1     0.26226265       -66.5125354093 -6.88E-03
    48 P_Mix/Diag. 0.10E-01    0.1     0.25964003       -66.5193485084 -6.81E-03
    49 P_Mix/Diag. 0.10E-01    0.1     0.25704363       -66.5260934764 -6.74E-03
    50 P_Mix/Diag. 0.10E-01    0.1     0.25447319       -66.5327709948 -6.68E-03
    51 P_Mix/Diag. 0.10E-01    0.1     0.25192846       -66.5393817380 -6.61E-03
    52 P_Mix/Diag. 0.10E-01    0.1     0.24940917       -66.5459263738 -6.54E-03
    53 P_Mix/Diag. 0.10E-01    0.1     0.24691508       -66.5524055632 -6.48E-03
    54 P_Mix/Diag. 0.10E-01    0.1     0.24444593       -66.5588199607 -6.41E-03
    55 P_Mix/Diag. 0.10E-01    0.1     0.24200147       -66.5651702142 -6.35E-03
    56 P_Mix/Diag. 0.10E-01    0.1     0.23958146       -66.5714569652 -6.29E-03
    57 P_Mix/Diag. 0.10E-01    0.1     0.23718564       -66.5776808487 -6.22E-03
    58 P_Mix/Diag. 0.10E-01    0.1     0.23481379       -66.5838424934 -6.16E-03
    59 P_Mix/Diag. 0.10E-01    0.1     0.23246565       -66.5899425216 -6.10E-03
    60 P_Mix/Diag. 0.10E-01    0.1     0.23014099       -66.5959815495 -6.04E-03
    61 P_Mix/Diag. 0.10E-01    0.1     0.22783958       -66.6019601871 -5.98E-03
    62 P_Mix/Diag. 0.10E-01    0.1     0.22556119       -66.6078790384 -5.92E-03
    63 P_Mix/Diag. 0.10E-01    0.1     0.22330558       -66.6137387012 -5.86E-03
    64 P_Mix/Diag. 0.10E-01    0.1     0.22107252       -66.6195397673 -5.80E-03
    65 P_Mix/Diag. 0.10E-01    0.1     0.21886179       -66.6252828228 -5.74E-03
    66 P_Mix/Diag. 0.10E-01    0.1     0.21667318       -66.6309684477 -5.69E-03
    67 P_Mix/Diag. 0.10E-01    0.1     0.21450644       -66.6365972163 -5.63E-03
    68 P_Mix/Diag. 0.10E-01    0.1     0.21236138       -66.6421696973 -5.57E-03
    69 P_Mix/Diag. 0.10E-01    0.1     0.21023777       -66.6476864535 -5.52E-03
    70 P_Mix/Diag. 0.10E-01    0.1     0.20813539       -66.6531480421 -5.46E-03
    71 P_Mix/Diag. 0.10E-01    0.1     0.20605403       -66.6585550148 -5.41E-03
    72 P_Mix/Diag. 0.10E-01    0.1     0.20399349       -66.6639079178 -5.35E-03
    73 P_Mix/Diag. 0.10E-01    0.1     0.20195356       -66.6692072918 -5.30E-03
    74 P_Mix/Diag. 0.10E-01    0.1     0.19993402       -66.6744536720 -5.25E-03
    75 P_Mix/Diag. 0.10E-01    0.1     0.19793468       -66.6796475884 -5.19E-03
    76 P_Mix/Diag. 0.10E-01    0.1     0.19595534       -66.6847895657 -5.14E-03
    77 P_Mix/Diag. 0.10E-01    0.1     0.19399578       -66.6898801232 -5.09E-03
    78 P_Mix/Diag. 0.10E-01    0.1     0.19205583       -66.6949197751 -5.04E-03
    79 P_Mix/Diag. 0.10E-01    0.1     0.19013527       -66.6999090305 -4.99E-03
    80 P_Mix/Diag. 0.10E-01    0.1     0.18823391       -66.7048483933 -4.94E-03
    81 P_Mix/Diag. 0.10E-01    0.1     0.18635158       -66.7097383625 -4.89E-03
    82 P_Mix/Diag. 0.10E-01    0.1     0.18448806       -66.7145794320 -4.84E-03
    83 P_Mix/Diag. 0.10E-01    0.1     0.18264318       -66.7193720908 -4.79E-03
    84 P_Mix/Diag. 0.10E-01    0.1     0.18081675       -66.7241168231 -4.74E-03
    85 P_Mix/Diag. 0.10E-01    0.1     0.17900858       -66.7288141080 -4.70E-03
    86 P_Mix/Diag. 0.10E-01    0.1     0.17721849       -66.7334644200 -4.65E-03
    87 P_Mix/Diag. 0.10E-01    0.1     0.17544631       -66.7380682290 -4.60E-03
    88 P_Mix/Diag. 0.10E-01    0.1     0.17369185       -66.7426259998 -4.56E-03
    89 P_Mix/Diag. 0.10E-01    0.1     0.17195493       -66.7471381930 -4.51E-03
    90 P_Mix/Diag. 0.10E-01    0.1     0.17023538       -66.7516052642 -4.47E-03
    91 P_Mix/Diag. 0.10E-01    0.1     0.16853302       -66.7560276647 -4.42E-03
    92 P_Mix/Diag. 0.10E-01    0.1     0.16684769       -66.7604058412 -4.38E-03
    93 P_Mix/Diag. 0.10E-01    0.1     0.16517922       -66.7647402359 -4.33E-03
    94 P_Mix/Diag. 0.10E-01    0.1     0.16352743       -66.7690312867 -4.29E-03
    95 P_Mix/Diag. 0.10E-01    0.1     0.16189215       -66.7732794270 -4.25E-03
    96 P_Mix/Diag. 0.10E-01    0.1     0.16027323       -66.7774850858 -4.21E-03
    97 P_Mix/Diag. 0.10E-01    0.1     0.15867050       -66.7816486881 -4.16E-03
    98 P_Mix/Diag. 0.10E-01    0.1     0.15708379       -66.7857706544 -4.12E-03
    99 P_Mix/Diag. 0.10E-01    0.1     0.15551295       -66.7898514010 -4.08E-03
   100 P_Mix/Diag. 0.10E-01    0.1     0.15395782       -66.7938913401 -4.04E-03
   101 P_Mix/Diag. 0.10E-01    0.1     0.15241825       -66.7978908799 -4.00E-03
   102 P_Mix/Diag. 0.10E-01    0.1     0.15089406       -66.8018504242 -3.96E-03
   103 P_Mix/Diag. 0.10E-01    0.1     0.14938512       -66.8057703731 -3.92E-03
   104 P_Mix/Diag. 0.10E-01    0.1     0.14789127       -66.8096511225 -3.88E-03
   105 P_Mix/Diag. 0.10E-01    0.1     0.14641236       -66.8134930644 -3.84E-03
   106 P_Mix/Diag. 0.10E-01    0.1     0.14494824       -66.8172965869 -3.80E-03
   107 P_Mix/Diag. 0.10E-01    0.1     0.14349875       -66.8210620742 -3.77E-03
   108 P_Mix/Diag. 0.10E-01    0.1     0.14206377       -66.8247899066 -3.73E-03
   109 P_Mix/Diag. 0.10E-01    0.1     0.14064313       -66.8284804607 -3.69E-03
   110 P_Mix/Diag. 0.10E-01    0.1     0.13923670       -66.8321341092 -3.65E-03
   111 P_Mix/Diag. 0.10E-01    0.1     0.13784433       -66.8357512213 -3.62E-03
   112 P_Mix/Diag. 0.10E-01    0.1     0.13646589       -66.8393321622 -3.58E-03
   113 P_Mix/Diag. 0.10E-01    0.1     0.13510123       -66.8428772937 -3.55E-03
   114 P_Mix/Diag. 0.10E-01    0.1     0.13375022       -66.8463869739 -3.51E-03
   115 P_Mix/Diag. 0.10E-01    0.1     0.13241271       -66.8498615573 -3.47E-03
   116 P_Mix/Diag. 0.10E-01    0.1     0.13108859       -66.8533013949 -3.44E-03
   117 P_Mix/Diag. 0.10E-01    0.1     0.12977770       -66.8567068341 -3.41E-03
   118 P_Mix/Diag. 0.10E-01    0.1     0.12847992       -66.8600782189 -3.37E-03
   119 P_Mix/Diag. 0.10E-01    0.1     0.12719512       -66.8634158898 -3.34E-03
   120 P_Mix/Diag. 0.10E-01    0.1     0.12592317       -66.8667201841 -3.30E-03
   121 P_Mix/Diag. 0.10E-01    0.1     0.12466394       -66.8699914354 -3.27E-03
   122 P_Mix/Diag. 0.10E-01    0.1     0.12341730       -66.8732299742 -3.24E-03
   123 P_Mix/Diag. 0.10E-01    0.1     0.12218313       -66.8764361276 -3.21E-03
   124 P_Mix/Diag. 0.10E-01    0.1     0.12096130       -66.8796102194 -3.17E-03
   125 P_Mix/Diag. 0.10E-01    0.1     0.11975168       -66.8827525704 -3.14E-03
   126 P_Mix/Diag. 0.10E-01    0.1     0.11855417       -66.8858634978 -3.11E-03
   127 P_Mix/Diag. 0.10E-01    0.1     0.11736863       -66.8889433160 -3.08E-03
   128 P_Mix/Diag. 0.10E-01    0.1     0.11619494       -66.8919923360 -3.05E-03
   129 P_Mix/Diag. 0.10E-01    0.1     0.11503299       -66.8950108657 -3.02E-03
   130 P_Mix/Diag. 0.10E-01    0.1     0.11388266       -66.8979992102 -2.99E-03
   131 P_Mix/Diag. 0.10E-01    0.1     0.11274383       -66.9009576713 -2.96E-03
   132 P_Mix/Diag. 0.10E-01    0.1     0.11161640       -66.9038865477 -2.93E-03
   133 P_Mix/Diag. 0.10E-01    0.1     0.11050023       -66.9067861353 -2.90E-03
   134 P_Mix/Diag. 0.10E-01    0.1     0.10939523       -66.9096567271 -2.87E-03
   135 P_Mix/Diag. 0.10E-01    0.1     0.10830128       -66.9124986130 -2.84E-03
   136 P_Mix/Diag. 0.10E-01    0.1     0.10721826       -66.9153120800 -2.81E-03
   137 P_Mix/Diag. 0.10E-01    0.1     0.10614608       -66.9180974124 -2.79E-03
   138 P_Mix/Diag. 0.10E-01    0.1     0.10508462       -66.9208548914 -2.76E-03
   139 P_Mix/Diag. 0.10E-01    0.1     0.10403377       -66.9235847956 -2.73E-03
   140 P_Mix/Diag. 0.10E-01    0.1     0.10299344       -66.9262874008 -2.70E-03
   141 P_Mix/Diag. 0.10E-01    0.1     0.10196350       -66.9289629799 -2.68E-03
   142 P_Mix/Diag. 0.10E-01    0.1     0.10094387       -66.9316118033 -2.65E-03
   143 P_Mix/Diag. 0.10E-01    0.1     0.09993443       -66.9342341384 -2.62E-03
   144 P_Mix/Diag. 0.10E-01    0.1     0.09893508       -66.9368302501 -2.60E-03
   145 P_Mix/Diag. 0.10E-01    0.1     0.09794573       -66.9394004008 -2.57E-03
   146 P_Mix/Diag. 0.10E-01    0.1     0.09696628       -66.9419448499 -2.54E-03
   147 P_Mix/Diag. 0.10E-01    0.1     0.09599661       -66.9444638545 -2.52E-03
   148 P_Mix/Diag. 0.10E-01    0.1     0.09503665       -66.9469576691 -2.49E-03
   149 P_Mix/Diag. 0.10E-01    0.1     0.09408628       -66.9494265456 -2.47E-03
   150 P_Mix/Diag. 0.10E-01    0.1     0.09314542       -66.9518707333 -2.44E-03
   151 P_Mix/Diag. 0.10E-01    0.1     0.09221396       -66.9542904791 -2.42E-03
   152 P_Mix/Diag. 0.10E-01    0.1     0.09129182       -66.9566860274 -2.40E-03
   153 P_Mix/Diag. 0.10E-01    0.1     0.09037891       -66.9590576203 -2.37E-03
   154 P_Mix/Diag. 0.10E-01    0.1     0.08947512       -66.9614054972 -2.35E-03
   155 P_Mix/Diag. 0.10E-01    0.1     0.08858037       -66.9637298954 -2.32E-03
   156 P_Mix/Diag. 0.10E-01    0.1     0.08769456       -66.9660310496 -2.30E-03
   157 P_Mix/Diag. 0.10E-01    0.1     0.08681762       -66.9683091922 -2.28E-03
   158 P_Mix/Diag. 0.10E-01    0.1     0.08594944       -66.9705645535 -2.26E-03
   159 P_Mix/Diag. 0.10E-01    0.1     0.08508995       -66.9727973611 -2.23E-03
   160 P_Mix/Diag. 0.10E-01    0.1     0.08423905       -66.9750078406 -2.21E-03
   161 P_Mix/Diag. 0.10E-01    0.1     0.08339666       -66.9771962153 -2.19E-03
   162 P_Mix/Diag. 0.10E-01    0.1     0.08256269       -66.9793627063 -2.17E-03
   163 P_Mix/Diag. 0.10E-01    0.1     0.08173706       -66.9815075324 -2.14E-03
   164 P_Mix/Diag. 0.10E-01    0.1     0.08091969       -66.9836309102 -2.12E-03
   165 P_Mix/Diag. 0.10E-01    0.1     0.08011049       -66.9857330543 -2.10E-03
   166 P_Mix/Diag. 0.10E-01    0.1     0.07930939       -66.9878141769 -2.08E-03
   167 P_Mix/Diag. 0.10E-01    0.1     0.07851630       -66.9898744882 -2.06E-03
   168 P_Mix/Diag. 0.10E-01    0.1     0.07773113       -66.9919141965 -2.04E-03
   169 P_Mix/Diag. 0.10E-01    0.1     0.07695382       -66.9939335077 -2.02E-03
   170 P_Mix/Diag. 0.10E-01    0.1     0.07618428       -66.9959326257 -2.00E-03
   171 P_Mix/Diag. 0.10E-01    0.1     0.07542244       -66.9979117526 -1.98E-03
   172 P_Mix/Diag. 0.10E-01    0.1     0.07466822       -66.9998710882 -1.96E-03
   173 P_Mix/Diag. 0.10E-01    0.1     0.07392153       -67.0018108305 -1.94E-03
   174 P_Mix/Diag. 0.10E-01    0.1     0.07318232       -67.0037311753 -1.92E-03
   175 P_Mix/Diag. 0.10E-01    0.1     0.07245050       -67.0056323167 -1.90E-03
   176 P_Mix/Diag. 0.10E-01    0.1     0.07172599       -67.0075144467 -1.88E-03
   177 P_Mix/Diag. 0.10E-01    0.1     0.07100873       -67.0093777554 -1.86E-03
   178 P_Mix/Diag. 0.10E-01    0.1     0.07029864       -67.0112224310 -1.84E-03
   179 P_Mix/Diag. 0.10E-01    0.1     0.06959566       -67.0130486598 -1.83E-03
   180 P_Mix/Diag. 0.10E-01    0.1     0.06889970       -67.0148566263 -1.81E-03
   181 P_Mix/Diag. 0.10E-01    0.1     0.06821070       -67.0166465132 -1.79E-03
   182 P_Mix/Diag. 0.10E-01    0.1     0.06752860       -67.0184185012 -1.77E-03
   183 P_Mix/Diag. 0.10E-01    0.1     0.06685331       -67.0201727693 -1.75E-03
   184 P_Mix/Diag. 0.10E-01    0.1     0.06618478       -67.0219094948 -1.74E-03
   185 P_Mix/Diag. 0.10E-01    0.1     0.06552293       -67.0236288530 -1.72E-03
   186 P_Mix/Diag. 0.10E-01    0.1     0.06486770       -67.0253310176 -1.70E-03
   187 P_Mix/Diag. 0.10E-01    0.1     0.06421902       -67.0270161606 -1.69E-03
   188 P_Mix/Diag. 0.10E-01    0.1     0.06357683       -67.0286844521 -1.67E-03
   189 P_Mix/Diag. 0.10E-01    0.1     0.06294106       -67.0303360607 -1.65E-03
   190 P_Mix/Diag. 0.10E-01    0.1     0.06231165       -67.0319711533 -1.64E-03
   191 P_Mix/Diag. 0.10E-01    0.1     0.06168854       -67.0335898949 -1.62E-03
   192 P_Mix/Diag. 0.10E-01    0.1     0.06107165       -67.0351924491 -1.60E-03
   193 P_Mix/Diag. 0.10E-01    0.1     0.06046094       -67.0367789777 -1.59E-03
   194 P_Mix/Diag. 0.10E-01    0.1     0.05985633       -67.0383496411 -1.57E-03
   195 P_Mix/Diag. 0.10E-01    0.1     0.05925776       -67.0399045978 -1.55E-03
   196 P_Mix/Diag. 0.10E-01    0.1     0.05866519       -67.0414440050 -1.54E-03
   197 P_Mix/Diag. 0.10E-01    0.1     0.05807853       -67.0429680181 -1.52E-03
   198 P_Mix/Diag. 0.10E-01    0.1     0.05749775       -67.0444767910 -1.51E-03
   199 P_Mix/Diag. 0.10E-01    0.1     0.05692277       -67.0459704762 -1.49E-03
   200 P_Mix/Diag. 0.10E-01    0.1     0.05635354       -67.0474492246 -1.48E-03
   201 P_Mix/Diag. 0.10E-01    0.1     0.05579001       -67.0489131855 -1.46E-03
   202 P_Mix/Diag. 0.10E-01    0.1     0.05523211       -67.0503625068 -1.45E-03
   203 P_Mix/Diag. 0.10E-01    0.1     0.05467979       -67.0517973349 -1.43E-03
   204 P_Mix/Diag. 0.10E-01    0.1     0.05413299       -67.0532178147 -1.42E-03
   205 P_Mix/Diag. 0.10E-01    0.1     0.05359166       -67.0546240897 -1.41E-03
   206 P_Mix/Diag. 0.10E-01    0.1     0.05305574       -67.0560163019 -1.39E-03
   207 P_Mix/Diag. 0.10E-01    0.1     0.05252518       -67.0573945920 -1.38E-03
   208 P_Mix/Diag. 0.10E-01    0.1     0.05199993       -67.0587590993 -1.36E-03
   209 P_Mix/Diag. 0.10E-01    0.1     0.05147993       -67.0601099614 -1.35E-03
   210 P_Mix/Diag. 0.10E-01    0.1     0.05096513       -67.0614473149 -1.34E-03
   211 P_Mix/Diag. 0.10E-01    0.1     0.05045548       -67.0627712949 -1.32E-03
   212 P_Mix/Diag. 0.10E-01    0.1     0.04995093       -67.0640820351 -1.31E-03
   213 P_Mix/Diag. 0.10E-01    0.1     0.04945142       -67.0653796679 -1.30E-03
   214 P_Mix/Diag. 0.10E-01    0.1     0.04895690       -67.0666643244 -1.28E-03
   215 P_Mix/Diag. 0.10E-01    0.1     0.04846734       -67.0679361343 -1.27E-03
   216 P_Mix/Diag. 0.10E-01    0.1     0.04798266       -67.0691952261 -1.26E-03
   217 P_Mix/Diag. 0.10E-01    0.1     0.04750284       -67.0704417269 -1.25E-03
   218 P_Mix/Diag. 0.10E-01    0.1     0.04702781       -67.0716757628 -1.23E-03
   219 P_Mix/Diag. 0.10E-01    0.1     0.04655753       -67.0728974583 -1.22E-03
   220 P_Mix/Diag. 0.10E-01    0.1     0.04609195       -67.0741069369 -1.21E-03
   221 P_Mix/Diag. 0.10E-01    0.1     0.04563103       -67.0753043207 -1.20E-03
   222 P_Mix/Diag. 0.10E-01    0.1     0.04517472       -67.0764897306 -1.19E-03
   223 P_Mix/Diag. 0.10E-01    0.1     0.04472298       -67.0776632864 -1.17E-03
   224 P_Mix/Diag. 0.10E-01    0.1     0.04427575       -67.0788251067 -1.16E-03
   225 P_Mix/Diag. 0.10E-01    0.1     0.04383299       -67.0799753088 -1.15E-03
   226 P_Mix/Diag. 0.10E-01    0.1     0.04339466       -67.0811140088 -1.14E-03
   227 P_Mix/Diag. 0.10E-01    0.1     0.04296071       -67.0822413219 -1.13E-03
   228 P_Mix/Diag. 0.10E-01    0.1     0.04253111       -67.0833573618 -1.12E-03
   229 P_Mix/Diag. 0.10E-01    0.1     0.04210579       -67.0844622413 -1.10E-03
   230 P_Mix/Diag. 0.10E-01    0.1     0.04168474       -67.0855560721 -1.09E-03
   231 P_Mix/Diag. 0.10E-01    0.1     0.04126789       -67.0866389645 -1.08E-03
   232 P_Mix/Diag. 0.10E-01    0.1     0.04085521       -67.0877110280 -1.07E-03
   233 P_Mix/Diag. 0.10E-01    0.1     0.04044666       -67.0887723708 -1.06E-03
   234 P_Mix/Diag. 0.10E-01    0.1     0.04004219       -67.0898231003 -1.05E-03
   235 P_Mix/Diag. 0.10E-01    0.1     0.03964177       -67.0908633224 -1.04E-03
   236 P_Mix/Diag. 0.10E-01    0.1     0.03924535       -67.0918931423 -1.03E-03
   237 P_Mix/Diag. 0.10E-01    0.1     0.03885290       -67.0929126640 -1.02E-03
   238 P_Mix/Diag. 0.10E-01    0.1     0.03846437       -67.0939219905 -1.01E-03
   239 P_Mix/Diag. 0.10E-01    0.1     0.03807973       -67.0949212238 -9.99E-04
   240 P_Mix/Diag. 0.10E-01    0.1     0.03769893       -67.0959104647 -9.89E-04
   241 P_Mix/Diag. 0.10E-01    0.1     0.03732194       -67.0968898132 -9.79E-04
   242 P_Mix/Diag. 0.10E-01    0.1     0.03694872       -67.0978593682 -9.70E-04
   243 P_Mix/Diag. 0.10E-01    0.1     0.03657923       -67.0988192277 -9.60E-04
   244 P_Mix/Diag. 0.10E-01    0.1     0.03621344       -67.0997694885 -9.50E-04
   245 P_Mix/Diag. 0.10E-01    0.1     0.03585131       -67.1007102468 -9.41E-04
   246 P_Mix/Diag. 0.10E-01    0.1     0.03549279       -67.1016415974 -9.31E-04
   247 P_Mix/Diag. 0.10E-01    0.1     0.03513787       -67.1025636346 -9.22E-04
   248 P_Mix/Diag. 0.10E-01    0.1     0.03478649       -67.1034764514 -9.13E-04
   249 P_Mix/Diag. 0.10E-01    0.1     0.03443862       -67.1043801400 -9.04E-04
   250 P_Mix/Diag. 0.10E-01    0.1     0.03409424       -67.1052747918 -8.95E-04
   251 P_Mix/Diag. 0.10E-01    0.1     0.03375329       -67.1061604970 -8.86E-04
   252 P_Mix/Diag. 0.10E-01    0.1     0.03341576       -67.1070373452 -8.77E-04
   253 P_Mix/Diag. 0.10E-01    0.1     0.03308160       -67.1079054249 -8.68E-04
   254 P_Mix/Diag. 0.10E-01    0.1     0.03275079       -67.1087648238 -8.59E-04
   255 P_Mix/Diag. 0.10E-01    0.1     0.03242328       -67.1096156287 -8.51E-04
   256 P_Mix/Diag. 0.10E-01    0.1     0.03209905       -67.1104579255 -8.42E-04
   257 P_Mix/Diag. 0.10E-01    0.1     0.03177806       -67.1112917994 -8.34E-04
   258 P_Mix/Diag. 0.10E-01    0.1     0.03146027       -67.1121173345 -8.26E-04
   259 P_Mix/Diag. 0.10E-01    0.1     0.03114567       -67.1129346143 -8.17E-04
   260 P_Mix/Diag. 0.10E-01    0.1     0.03083422       -67.1137437213 -8.09E-04
   261 P_Mix/Diag. 0.10E-01    0.1     0.03052587       -67.1145447373 -8.01E-04
   262 P_Mix/Diag. 0.10E-01    0.1     0.03022061       -67.1153377430 -7.93E-04
   263 P_Mix/Diag. 0.10E-01    0.1     0.02991841       -67.1161228187 -7.85E-04
   264 P_Mix/Diag. 0.10E-01    0.1     0.02961922       -67.1169000437 -7.77E-04
   265 P_Mix/Diag. 0.10E-01    0.1     0.02932303       -67.1176694964 -7.69E-04
   266 P_Mix/Diag. 0.10E-01    0.1     0.02902980       -67.1184312546 -7.62E-04
   267 P_Mix/Diag. 0.10E-01    0.1     0.02873950       -67.1191853952 -7.54E-04
   268 P_Mix/Diag. 0.10E-01    0.1     0.02845211       -67.1199319944 -7.47E-04
   269 P_Mix/Diag. 0.10E-01    0.1     0.02816759       -67.1206711276 -7.39E-04
   270 P_Mix/Diag. 0.10E-01    0.1     0.02788591       -67.1214028694 -7.32E-04
   271 P_Mix/Diag. 0.10E-01    0.1     0.02760705       -67.1221272939 -7.24E-04
   272 P_Mix/Diag. 0.10E-01    0.1     0.02733098       -67.1228444741 -7.17E-04
   273 P_Mix/Diag. 0.10E-01    0.1     0.02705767       -67.1235544825 -7.10E-04
   274 P_Mix/Diag. 0.10E-01    0.1     0.02678710       -67.1242573908 -7.03E-04
   275 P_Mix/Diag. 0.10E-01    0.1     0.02651922       -67.1249532700 -6.96E-04
   276 P_Mix/Diag. 0.10E-01    0.1     0.02625403       -67.1256421905 -6.89E-04
   277 P_Mix/Diag. 0.10E-01    0.1     0.02599149       -67.1263242217 -6.82E-04
   278 P_Mix/Diag. 0.10E-01    0.1     0.02573158       -67.1269994326 -6.75E-04
   279 P_Mix/Diag. 0.10E-01    0.1     0.02547426       -67.1276678914 -6.68E-04
   280 P_Mix/Diag. 0.10E-01    0.1     0.02521952       -67.1283296657 -6.62E-04
   281 P_Mix/Diag. 0.10E-01    0.1     0.02496732       -67.1289848222 -6.55E-04
   282 P_Mix/Diag. 0.10E-01    0.1     0.02471765       -67.1296334271 -6.49E-04
   283 P_Mix/Diag. 0.10E-01    0.1     0.02447047       -67.1302755460 -6.42E-04
   284 P_Mix/Diag. 0.10E-01    0.1     0.02422577       -67.1309112436 -6.36E-04
   285 P_Mix/Diag. 0.10E-01    0.1     0.02398351       -67.1315405843 -6.29E-04
   286 P_Mix/Diag. 0.10E-01    0.1     0.02374368       -67.1321636316 -6.23E-04
   287 P_Mix/Diag. 0.10E-01    0.1     0.02350624       -67.1327804485 -6.17E-04
   288 P_Mix/Diag. 0.10E-01    0.1     0.02327118       -67.1333910971 -6.11E-04
   289 P_Mix/Diag. 0.10E-01    0.1     0.02303847       -67.1339956393 -6.05E-04
   290 P_Mix/Diag. 0.10E-01    0.1     0.02280808       -67.1345941360 -5.98E-04
   291 P_Mix/Diag. 0.10E-01    0.1     0.02258000       -67.1351866478 -5.93E-04
   292 P_Mix/Diag. 0.10E-01    0.1     0.02235420       -67.1357732345 -5.87E-04
   293 P_Mix/Diag. 0.10E-01    0.1     0.02213066       -67.1363539553 -5.81E-04
   294 P_Mix/Diag. 0.10E-01    0.1     0.02190935       -67.1369288689 -5.75E-04
   295 P_Mix/Diag. 0.10E-01    0.1     0.02169026       -67.1374980333 -5.69E-04
   296 P_Mix/Diag. 0.10E-01    0.1     0.02147336       -67.1380615061 -5.63E-04
   297 P_Mix/Diag. 0.10E-01    0.1     0.02125862       -67.1386193442 -5.58E-04
   298 P_Mix/Diag. 0.10E-01    0.1     0.02104604       -67.1391716039 -5.52E-04
   299 P_Mix/Diag. 0.10E-01    0.1     0.02083558       -67.1397183410 -5.47E-04
   300 P_Mix/Diag. 0.10E-01    0.1     0.02062722       -67.1402596107 -5.41E-04
   301 P_Mix/Diag. 0.10E-01    0.1     0.02042095       -67.1407954678 -5.36E-04
   302 P_Mix/Diag. 0.10E-01    0.1     0.02021674       -67.1413259662 -5.30E-04
   303 P_Mix/Diag. 0.10E-01    0.1     0.02001457       -67.1418511597 -5.25E-04
   304 P_Mix/Diag. 0.10E-01    0.1     0.01981442       -67.1423711013 -5.20E-04
   305 P_Mix/Diag. 0.10E-01    0.1     0.01961628       -67.1428858434 -5.15E-04
   306 P_Mix/Diag. 0.10E-01    0.1     0.01942012       -67.1433954381 -5.10E-04
   307 P_Mix/Diag. 0.10E-01    0.1     0.01922592       -67.1438999369 -5.04E-04
   308 P_Mix/Diag. 0.10E-01    0.1     0.01903366       -67.1443993906 -4.99E-04
   309 P_Mix/Diag. 0.10E-01    0.1     0.01884332       -67.1448938499 -4.94E-04
   310 P_Mix/Diag. 0.10E-01    0.1     0.01865489       -67.1453833645 -4.90E-04
   311 P_Mix/Diag. 0.10E-01    0.1     0.01846834       -67.1458679840 -4.85E-04
   312 P_Mix/Diag. 0.10E-01    0.1     0.01828366       -67.1463477573 -4.80E-04
   313 P_Mix/Diag. 0.10E-01    0.1     0.01810082       -67.1468227329 -4.75E-04
   314 P_Mix/Diag. 0.10E-01    0.1     0.01791981       -67.1472929587 -4.70E-04
   315 P_Mix/Diag. 0.10E-01    0.1     0.01774061       -67.1477584822 -4.66E-04
   316 P_Mix/Diag. 0.10E-01    0.1     0.01756321       -67.1482193506 -4.61E-04
   317 P_Mix/Diag. 0.10E-01    0.1     0.01738757       -67.1486756102 -4.56E-04
   318 P_Mix/Diag. 0.10E-01    0.1     0.01721370       -67.1491273072 -4.52E-04
   319 P_Mix/Diag. 0.10E-01    0.1     0.01704156       -67.1495744873 -4.47E-04
   320 P_Mix/Diag. 0.10E-01    0.1     0.01687115       -67.1500171956 -4.43E-04
   321 P_Mix/Diag. 0.10E-01    0.1     0.01670243       -67.1504554768 -4.38E-04
   322 P_Mix/Diag. 0.10E-01    0.1     0.01653541       -67.1508893751 -4.34E-04
   323 P_Mix/Diag. 0.10E-01    0.1     0.01637006       -67.1513189345 -4.30E-04
   324 P_Mix/Diag. 0.10E-01    0.1     0.01620636       -67.1517441983 -4.25E-04
   325 P_Mix/Diag. 0.10E-01    0.1     0.01604429       -67.1521652095 -4.21E-04
   326 P_Mix/Diag. 0.10E-01    0.1     0.01588385       -67.1525820105 -4.17E-04
   327 P_Mix/Diag. 0.10E-01    0.1     0.01572501       -67.1529946436 -4.13E-04
   328 P_Mix/Diag. 0.10E-01    0.1     0.01556776       -67.1534031503 -4.09E-04
   329 P_Mix/Diag. 0.10E-01    0.1     0.01541208       -67.1538075719 -4.04E-04
   330 P_Mix/Diag. 0.10E-01    0.1     0.01525796       -67.1542079493 -4.00E-04
   331 P_Mix/Diag. 0.10E-01    0.1     0.01510538       -67.1546043230 -3.96E-04
   332 P_Mix/Diag. 0.10E-01    0.1     0.01495433       -67.1549967329 -3.92E-04
   333 P_Mix/Diag. 0.10E-01    0.1     0.01480479       -67.1553852187 -3.88E-04
   334 P_Mix/Diag. 0.10E-01    0.1     0.01465674       -67.1557698197 -3.85E-04
   335 P_Mix/Diag. 0.10E-01    0.1     0.01451017       -67.1561505746 -3.81E-04
   336 P_Mix/Diag. 0.10E-01    0.1     0.01436507       -67.1565275220 -3.77E-04
   337 P_Mix/Diag. 0.10E-01    0.1     0.01422142       -67.1569006999 -3.73E-04
   338 P_Mix/Diag. 0.10E-01    0.1     0.01407920       -67.1572701461 -3.69E-04
   339 P_Mix/Diag. 0.10E-01    0.1     0.01393841       -67.1576358977 -3.66E-04
   340 P_Mix/Diag. 0.10E-01    0.1     0.01379903       -67.1579979919 -3.62E-04
   341 P_Mix/Diag. 0.10E-01    0.1     0.01366104       -67.1583564651 -3.58E-04
   342 P_Mix/Diag. 0.10E-01    0.1     0.01352443       -67.1587113536 -3.55E-04
   343 P_Mix/Diag. 0.10E-01    0.1     0.01338918       -67.1590626932 -3.51E-04
   344 P_Mix/Diag. 0.10E-01    0.1     0.01325529       -67.1594105194 -3.48E-04
   345 P_Mix/Diag. 0.10E-01    0.1     0.01312274       -67.1597548674 -3.44E-04
   346 P_Mix/Diag. 0.10E-01    0.1     0.01299151       -67.1600957718 -3.41E-04
   347 P_Mix/Diag. 0.10E-01    0.1     0.01286160       -67.1604332673 -3.37E-04
   348 P_Mix/Diag. 0.10E-01    0.1     0.01273298       -67.1607673877 -3.34E-04
   349 P_Mix/Diag. 0.10E-01    0.1     0.01260565       -67.1610981670 -3.31E-04
   350 P_Mix/Diag. 0.10E-01    0.1     0.01247959       -67.1614256385 -3.27E-04
   351 P_Mix/Diag. 0.10E-01    0.1     0.01235480       -67.1617498352 -3.24E-04
   352 P_Mix/Diag. 0.10E-01    0.1     0.01223125       -67.1620707900 -3.21E-04
   353 P_Mix/Diag. 0.10E-01    0.1     0.01210894       -67.1623885353 -3.18E-04
   354 P_Mix/Diag. 0.10E-01    0.1     0.01198785       -67.1627031030 -3.15E-04
   355 P_Mix/Diag. 0.10E-01    0.1     0.01186797       -67.1630145252 -3.11E-04
   356 P_Mix/Diag. 0.10E-01    0.1     0.01174929       -67.1633228330 -3.08E-04
   357 P_Mix/Diag. 0.10E-01    0.1     0.01163180       -67.1636280579 -3.05E-04
   358 P_Mix/Diag. 0.10E-01    0.1     0.01151548       -67.1639302304 -3.02E-04
   359 P_Mix/Diag. 0.10E-01    0.1     0.01140032       -67.1642293813 -2.99E-04
   360 P_Mix/Diag. 0.10E-01    0.1     0.01128632       -67.1645255406 -2.96E-04
   361 P_Mix/Diag. 0.10E-01    0.1     0.01117346       -67.1648187383 -2.93E-04
   362 P_Mix/Diag. 0.10E-01    0.1     0.01106172       -67.1651090041 -2.90E-04
   363 P_Mix/Diag. 0.10E-01    0.1     0.01095111       -67.1653963672 -2.87E-04
   364 P_Mix/Diag. 0.10E-01    0.1     0.01084159       -67.1656808567 -2.84E-04
   365 P_Mix/Diag. 0.10E-01    0.1     0.01073318       -67.1659625012 -2.82E-04
   366 P_Mix/Diag. 0.10E-01    0.1     0.01062585       -67.1662413294 -2.79E-04
   367 P_Mix/Diag. 0.10E-01    0.1     0.01051959       -67.1665173692 -2.76E-04
   368 P_Mix/Diag. 0.10E-01    0.1     0.01041439       -67.1667906487 -2.73E-04
   369 P_Mix/Diag. 0.10E-01    0.1     0.01031025       -67.1670611953 -2.71E-04
   370 P_Mix/Diag. 0.10E-01    0.1     0.01020715       -67.1673290365 -2.68E-04
   371 P_Mix/Diag. 0.10E-01    0.1     0.01010507       -67.1675941993 -2.65E-04
   372 P_Mix/Diag. 0.10E-01    0.1     0.01000402       -67.1678567104 -2.63E-04
   373 P_Mix/Diag. 0.10E-01    0.1     0.00990398       -67.1681165965 -2.60E-04
   374 P_Mix/Diag. 0.10E-01    0.1     0.00980494       -67.1683738836 -2.57E-04
   375 P_Mix/Diag. 0.10E-01    0.1     0.00970689       -67.1686285979 -2.55E-04
   376 P_Mix/Diag. 0.10E-01    0.1     0.00960982       -67.1688807651 -2.52E-04
   377 P_Mix/Diag. 0.10E-01    0.1     0.00951373       -67.1691304106 -2.50E-04
   378 P_Mix/Diag. 0.10E-01    0.1     0.00941859       -67.1693775596 -2.47E-04
   379 P_Mix/Diag. 0.10E-01    0.1     0.00932440       -67.1696222372 -2.45E-04
   380 P_Mix/Diag. 0.10E-01    0.1     0.00923116       -67.1698644679 -2.42E-04
   381 P_Mix/Diag. 0.10E-01    0.1     0.00913885       -67.1701042764 -2.40E-04
   382 P_Mix/Diag. 0.10E-01    0.1     0.00904746       -67.1703416868 -2.37E-04
   383 P_Mix/Diag. 0.10E-01    0.1     0.00895698       -67.1705767231 -2.35E-04
   384 P_Mix/Diag. 0.10E-01    0.1     0.00886741       -67.1708094090 -2.33E-04
   385 P_Mix/Diag. 0.10E-01    0.1     0.00877874       -67.1710397680 -2.30E-04
   386 P_Mix/Diag. 0.10E-01    0.1     0.00869095       -67.1712678235 -2.28E-04
   387 P_Mix/Diag. 0.10E-01    0.1     0.00860404       -67.1714935984 -2.26E-04
   388 P_Mix/Diag. 0.10E-01    0.1     0.00851800       -67.1717171155 -2.24E-04
   389 P_Mix/Diag. 0.10E-01    0.1     0.00843282       -67.1719383975 -2.21E-04
   390 P_Mix/Diag. 0.10E-01    0.1     0.00834850       -67.1721574667 -2.19E-04
   391 P_Mix/Diag. 0.10E-01    0.1     0.00826501       -67.1723743452 -2.17E-04
   392 P_Mix/Diag. 0.10E-01    0.1     0.00818236       -67.1725890549 -2.15E-04
   393 P_Mix/Diag. 0.10E-01    0.1     0.00810054       -67.1728016175 -2.13E-04
   394 P_Mix/Diag. 0.10E-01    0.1     0.00801953       -67.1730120544 -2.10E-04
   395 P_Mix/Diag. 0.10E-01    0.1     0.00793934       -67.1732203870 -2.08E-04
   396 P_Mix/Diag. 0.10E-01    0.1     0.00785994       -67.1734266363 -2.06E-04
   397 P_Mix/Diag. 0.10E-01    0.1     0.00778134       -67.1736308231 -2.04E-04
   398 P_Mix/Diag. 0.10E-01    0.1     0.00770353       -67.1738329680 -2.02E-04
   399 P_Mix/Diag. 0.10E-01    0.1     0.00762649       -67.1740330914 -2.00E-04
   400 P_Mix/Diag. 0.10E-01    0.1     0.00755023       -67.1742312137 -1.98E-04
   401 P_Mix/Diag. 0.10E-01    0.1     0.00747473       -67.1744273547 -1.96E-04
   402 P_Mix/Diag. 0.10E-01    0.1     0.00739998       -67.1746215343 -1.94E-04
   403 P_Mix/Diag. 0.10E-01    0.1     0.00732598       -67.1748137721 -1.92E-04
   404 P_Mix/Diag. 0.10E-01    0.1     0.00725272       -67.1750040875 -1.90E-04
   405 P_Mix/Diag. 0.10E-01    0.1     0.00718019       -67.1751924997 -1.88E-04
   406 P_Mix/Diag. 0.10E-01    0.1     0.00710839       -67.1753790279 -1.87E-04
   407 P_Mix/Diag. 0.10E-01    0.1     0.00703731       -67.1755636908 -1.85E-04
   408 P_Mix/Diag. 0.10E-01    0.1     0.00696693       -67.1757465070 -1.83E-04
   409 P_Mix/Diag. 0.10E-01    0.1     0.00689726       -67.1759274951 -1.81E-04
   410 P_Mix/Diag. 0.10E-01    0.1     0.00682829       -67.1761066733 -1.79E-04
   411 P_Mix/Diag. 0.10E-01    0.1     0.00676001       -67.1762840597 -1.77E-04
   412 P_Mix/Diag. 0.10E-01    0.1     0.00669241       -67.1764596722 -1.76E-04
   413 P_Mix/Diag. 0.10E-01    0.1     0.00662548       -67.1766335286 -1.74E-04
   414 P_Mix/Diag. 0.10E-01    0.1     0.00655923       -67.1768056465 -1.72E-04
   415 P_Mix/Diag. 0.10E-01    0.1     0.00649364       -67.1769760432 -1.70E-04
   416 P_Mix/Diag. 0.10E-01    0.1     0.00642870       -67.1771447359 -1.69E-04
   417 P_Mix/Diag. 0.10E-01    0.1     0.00636441       -67.1773117416 -1.67E-04
   418 P_Mix/Diag. 0.10E-01    0.1     0.00630077       -67.1774770774 -1.65E-04
   419 P_Mix/Diag. 0.10E-01    0.1     0.00623776       -67.1776407597 -1.64E-04
   420 P_Mix/Diag. 0.10E-01    0.1     0.00617538       -67.1778028053 -1.62E-04
   421 P_Mix/Diag. 0.10E-01    0.1     0.00611363       -67.1779632304 -1.60E-04
   422 P_Mix/Diag. 0.10E-01    0.1     0.00605249       -67.1781220512 -1.59E-04
   423 P_Mix/Diag. 0.10E-01    0.1     0.00599197       -67.1782792838 -1.57E-04
   424 P_Mix/Diag. 0.10E-01    0.1     0.00593205       -67.1784349441 -1.56E-04
   425 P_Mix/Diag. 0.10E-01    0.1     0.00587273       -67.1785890478 -1.54E-04
   426 P_Mix/Diag. 0.10E-01    0.1     0.00581400       -67.1787416105 -1.53E-04
   427 P_Mix/Diag. 0.10E-01    0.1     0.00575586       -67.1788926475 -1.51E-04
   428 P_Mix/Diag. 0.10E-01    0.1     0.00569830       -67.1790421742 -1.50E-04
   429 P_Mix/Diag. 0.10E-01    0.1     0.00564132       -67.1791902056 -1.48E-04
   430 P_Mix/Diag. 0.10E-01    0.1     0.00558491       -67.1793367567 -1.47E-04
   431 P_Mix/Diag. 0.10E-01    0.1     0.00552906       -67.1794818423 -1.45E-04
   432 P_Mix/Diag. 0.10E-01    0.1     0.00547377       -67.1796254770 -1.44E-04
   433 P_Mix/Diag. 0.10E-01    0.1     0.00541903       -67.1797676754 -1.42E-04
   434 P_Mix/Diag. 0.10E-01    0.1     0.00536484       -67.1799084517 -1.41E-04
   435 P_Mix/Diag. 0.10E-01    0.1     0.00531119       -67.1800478204 -1.39E-04
   436 P_Mix/Diag. 0.10E-01    0.1     0.00525808       -67.1801857953 -1.38E-04
   437 P_Mix/Diag. 0.10E-01    0.1     0.00520550       -67.1803223905 -1.37E-04
   438 P_Mix/Diag. 0.10E-01    0.1     0.00515344       -67.1804576197 -1.35E-04
   439 P_Mix/Diag. 0.10E-01    0.1     0.00510191       -67.1805914967 -1.34E-04
   440 P_Mix/Diag. 0.10E-01    0.1     0.00505089       -67.1807240349 -1.33E-04
   441 P_Mix/Diag. 0.10E-01    0.1     0.00500038       -67.1808552476 -1.31E-04
   442 P_Mix/Diag. 0.10E-01    0.1     0.00495038       -67.1809851483 -1.30E-04
   443 P_Mix/Diag. 0.10E-01    0.1     0.00490087       -67.1811137500 -1.29E-04
   444 P_Mix/Diag. 0.10E-01    0.1     0.00485186       -67.1812410656 -1.27E-04
   445 P_Mix/Diag. 0.10E-01    0.1     0.00480335       -67.1813671081 -1.26E-04
   446 P_Mix/Diag. 0.10E-01    0.1     0.00475531       -67.1814918902 -1.25E-04
   447 P_Mix/Diag. 0.10E-01    0.1     0.00470776       -67.1816154244 -1.24E-04
   448 P_Mix/Diag. 0.10E-01    0.1     0.00466068       -67.1817377233 -1.22E-04
   449 P_Mix/Diag. 0.10E-01    0.1     0.00461408       -67.1818587992 -1.21E-04
   450 P_Mix/Diag. 0.10E-01    0.1     0.00456793       -67.1819786643 -1.20E-04
   451 P_Mix/Diag. 0.10E-01    0.1     0.00452226       -67.1820973308 -1.19E-04
   452 P_Mix/Diag. 0.10E-01    0.1     0.00447703       -67.1822148107 -1.17E-04
   453 P_Mix/Diag. 0.10E-01    0.1     0.00443226       -67.1823311157 -1.16E-04
   454 P_Mix/Diag. 0.10E-01    0.1     0.00438794       -67.1824462577 -1.15E-04
   455 P_Mix/Diag. 0.10E-01    0.1     0.00434406       -67.1825602483 -1.14E-04
   456 P_Mix/Diag. 0.10E-01    0.1     0.00430062       -67.1826730989 -1.13E-04
   457 P_Mix/Diag. 0.10E-01    0.1     0.00425761       -67.1827848211 -1.12E-04
   458 P_Mix/Diag. 0.10E-01    0.1     0.00421504       -67.1828954260 -1.11E-04
   459 P_Mix/Diag. 0.10E-01    0.1     0.00417289       -67.1830049249 -1.09E-04
   460 P_Mix/Diag. 0.10E-01    0.1     0.00413116       -67.1831133288 -1.08E-04
   461 P_Mix/Diag. 0.10E-01    0.1     0.00408985       -67.1832206486 -1.07E-04
   462 P_Mix/Diag. 0.10E-01    0.1     0.00404895       -67.1833268953 -1.06E-04
   463 P_Mix/Diag. 0.10E-01    0.1     0.00400846       -67.1834320795 -1.05E-04
   464 P_Mix/Diag. 0.10E-01    0.1     0.00396837       -67.1835362118 -1.04E-04
   465 P_Mix/Diag. 0.10E-01    0.1     0.00392869       -67.1836393028 -1.03E-04
   466 P_Mix/Diag. 0.10E-01    0.1     0.00388940       -67.1837413630 -1.02E-04
   467 P_Mix/Diag. 0.10E-01    0.4     0.00385051       -67.1838424025 -1.01E-04
   468 P_Mix/Diag. 0.10E-01    0.1     0.00381200       -67.1839424316 -1.00E-04
   469 P_Mix/Diag. 0.10E-01    0.1     0.00377388       -67.1840414604 -9.90E-05
   470 P_Mix/Diag. 0.10E-01    0.1     0.00373615       -67.1841394989 -9.80E-05
   471 P_Mix/Diag. 0.10E-01    0.1     0.00369878       -67.1842365571 -9.71E-05
   472 P_Mix/Diag. 0.10E-01    0.1     0.00366180       -67.1843326447 -9.61E-05
   473 P_Mix/Diag. 0.10E-01    0.1     0.00362518       -67.1844277714 -9.51E-05
   474 P_Mix/Diag. 0.10E-01    0.1     0.00358893       -67.1845219468 -9.42E-05
   475 P_Mix/Diag. 0.10E-01    0.1     0.00355304       -67.1846151805 -9.32E-05
   476 P_Mix/Diag. 0.10E-01    0.1     0.00351751       -67.1847074818 -9.23E-05
   477 P_Mix/Diag. 0.10E-01    0.1     0.00348233       -67.1847988601 -9.14E-05
   478 P_Mix/Diag. 0.10E-01    0.1     0.00344751       -67.1848893247 -9.05E-05
   479 P_Mix/Diag. 0.10E-01    0.1     0.00341303       -67.1849788846 -8.96E-05
   480 P_Mix/Diag. 0.10E-01    0.1     0.00337890       -67.1850675489 -8.87E-05
   481 P_Mix/Diag. 0.10E-01    0.1     0.00334511       -67.1851553265 -8.78E-05
   482 P_Mix/Diag. 0.10E-01    0.1     0.00331166       -67.1852422264 -8.69E-05
   483 P_Mix/Diag. 0.10E-01    0.1     0.00327855       -67.1853282573 -8.60E-05
   484 P_Mix/Diag. 0.10E-01    0.1     0.00324576       -67.1854134278 -8.52E-05
   485 P_Mix/Diag. 0.10E-01    0.1     0.00321330       -67.1854977467 -8.43E-05
   486 P_Mix/Diag. 0.10E-01    0.1     0.00318117       -67.1855812224 -8.35E-05
   487 P_Mix/Diag. 0.10E-01    0.1     0.00314936       -67.1856638633 -8.26E-05
   488 P_Mix/Diag. 0.10E-01    0.1     0.00311786       -67.1857456778 -8.18E-05
   489 P_Mix/Diag. 0.10E-01    0.1     0.00308669       -67.1858266742 -8.10E-05
   490 P_Mix/Diag. 0.10E-01    0.1     0.00305582       -67.1859068606 -8.02E-05
   491 P_Mix/Diag. 0.10E-01    0.1     0.00302526       -67.1859862451 -7.94E-05
   492 P_Mix/Diag. 0.10E-01    0.1     0.00299501       -67.1860648358 -7.86E-05
   493 P_Mix/Diag. 0.10E-01    0.1     0.00296506       -67.1861426406 -7.78E-05
   494 P_Mix/Diag. 0.10E-01    0.1     0.00293541       -67.1862196673 -7.70E-05
   495 P_Mix/Diag. 0.10E-01    0.1     0.00290605       -67.1862959238 -7.63E-05
   496 P_Mix/Diag. 0.10E-01    0.1     0.00287699       -67.1863714177 -7.55E-05
   497 P_Mix/Diag. 0.10E-01    0.1     0.00284822       -67.1864461566 -7.47E-05
   498 P_Mix/Diag. 0.10E-01    0.1     0.00281974       -67.1865201482 -7.40E-05
   499 P_Mix/Diag. 0.10E-01    0.1     0.00279154       -67.1865933999 -7.33E-05
   500 P_Mix/Diag. 0.10E-01    0.1     0.00276363       -67.1866659190 -7.25E-05
   501 DIIS/Diag.  0.94E-15    0.1     0.00273599       -67.1867377130 -7.18E-05
   502 DIIS/Diag.  0.26E-14    0.1     1.9762E-14       -67.1938453141 -7.11E-03

  *** SCF run converged in   502 steps ***


  Core Hamiltonian energy:                                    -66.90355717842262
  Repulsive potential energy:                                  -0.28954444264483
  Electronic energy:                                           -0.00000000000000
  Dispersion energy:                                           -0.00074369306991
  Electronic entropic energy:                                  -0.00258034516863
  Fermi energy:                                                -0.21940798061041

  Total energy:                                               -67.19384531413736

 ENERGY| Total FORCE_EVAL ( QS ) energy (a.u.):              -67.193845314137363


 -------------------------------------------------------------------------------
 -                                                                             -
 -                                DBCSR STATISTICS                             -
 -                                                                             -
 -------------------------------------------------------------------------------
 COUNTER                                    TOTAL       BLAS       SMM       ACC
 flops     9 x     9 x   216           1686334464     100.0%      0.0%      0.0%
 flops inhomo. stacks                           0       0.0%      0.0%      0.0%
 flops total                         1.686334E+09     100.0%      0.0%      0.0%
 flops max/rank                      1.686334E+09     100.0%      0.0%      0.0%
 matmuls inhomo. stacks                         0       0.0%      0.0%      0.0%
 matmuls total                              48192     100.0%      0.0%      0.0%
 number of processed stacks                   502     100.0%      0.0%      0.0%
 average stack size                                    96.0       0.0       0.0
 marketing flops                     6.323796E+09
 -------------------------------------------------------------------------------
 # multiplications                            502
 max memory usage/rank              58.511360E+06
 # max total images/rank                        1
 # max 3D layers                                1
 # MPI messages exchanged                       0
 MPI messages size (bytes):
  total size                         0.000000E+00
  min size                           0.000000E+00
  max size                           0.000000E+00
  average size                       0.000000E+00
 MPI breakdown and total messages size (bytes):
             size <=      128                   0                        0
       128 < size <=     8192                   0                        0
      8192 < size <=    32768                   0                        0
     32768 < size <=   131072                   0                        0
    131072 < size <=  4194304                   0                        0
   4194304 < size <= 16777216                   0                        0
  16777216 < size                               0                        0
 -------------------------------------------------------------------------------

 MEMORY| Estimated peak process memory [MiB]                                  57

 -------------------------------------------------------------------------------
 -                                                                             -
 -                         MESSAGE PASSING PERFORMANCE                         -
 -                                                                             -
 -------------------------------------------------------------------------------

 ROUTINE             CALLS      AVE VOLUME [Bytes]
 MP_Group             1007
 MP_Bcast              523                    290.
 MP_Allreduce         7579                  24754.
 MP_Sync               504
 MP_Alltoall         20080                 121043.
 MP_Wait             12048
 MP_ISend             2008                   3360.
 MP_IRecv             2008                   3360.
 MP_Memory           42168
 -------------------------------------------------------------------------------


 -------------------------------------------------------------------------------
 -                                                                             -
 -                           R E F E R E N C E S                               -
 -                                                                             -
 -------------------------------------------------------------------------------
 
 CP2K version 7.0 (Development Version), the CP2K developers group (2018).
 CP2K is freely available from https://www.cp2k.org/ .

 Schuett, Ole; Messmer, Peter; Hutter, Juerg; VandeVondele, Joost. 
 Electronic Structure Calculations on Graphics Processing Units, John Wiley & Sons, Ltd, 173-190 (2016). 
 GPU-Accelerated Sparse Matrix-Matrix Multiplication for Linear Scaling Density Functional Theory.
 https://dx.doi.org/10.1002/9781118670712.ch8


 Borstnik, U; VandeVondele, J; Weber, V; Hutter, J. 
 PARALLEL COMPUTING, 40 (5-6), 47-58 (2014). 
 Sparse matrix multiplication: The distributed block-compressed sparse
 row library.
 https://dx.doi.org/10.1016/j.parco.2014.03.012


 Hutter, J; Iannuzzi, M; Schiffmann, F; VandeVondele, J. 
 WILEY INTERDISCIPLINARY REVIEWS-COMPUTATIONAL MOLECULAR SCIENCE, 4 (1), 15-25 (2014). 
 CP2K: atomistic simulations of condensed matter systems.
 https://dx.doi.org/10.1002/wcms.1159


 Zhechkov, L; Heine, T; Patchkovskii, S; Seifert, G; Duarte, HA. 
 JOURNAL OF CHEMICAL THEORY AND COMPUTATION, 1 (5), 841-847 (2005). 
 An efficient a Posteriori treatment for dispersion interaction in
 density-functional-based tight binding.
 https://dx.doi.org/10.1021/ct050065y


 Frigo, M; Johnson, SG. 
 PROCEEDINGS OF THE IEEE, 93 (2), 216-231 (2005). 
 The design and implementation of FFTW3.
 https://dx.doi.org/10.1109/JPROC.2004.840301


 Elstner, M; Porezag, D; Jungnickel, G; Elsner, J; Haugk, M;
 Frauenheim, T; Suhai, S; Seifert, G. 
 PHYSICAL REVIEW B, 58 (11), 7260-7268 (1998). 
 Self-consistent-charge density-functional tight-binding method for
 simulations of complex materials properties.
 https://dx.doi.org/10.1103/PhysRevB.58.7260


 Seifert, G; Porezag, D; Frauenheim, T. 
 INTERNATIONAL JOURNAL OF QUANTUM CHEMISTRY, 58 (2), 185-192 (1996). 
 Calculations of molecules, clusters, and solids with a simplified
 LCAO-DFT-LDA scheme.
 https://dx.doi.org/10.1002/(SICI)1097-461X(1996)58:2<185::AID-QUA7>3.0.CO;2-U


 POREZAG, D; FRAUENHEIM, T; KOHLER, T; SEIFERT, G; KASCHNER, R. 
 PHYSICAL REVIEW B, 51 (19), 12947-12957 (1995). 
 CONSTRUCTION OF TIGHT-BINDING-LIKE POTENTIALS ON THE BASIS OF
 DENSITY-FUNCTIONAL THEORY - APPLICATION TO CARBON.
 https://dx.doi.org/10.1103/PhysRevB.51.12947


 -------------------------------------------------------------------------------
 -                                                                             -
 -                                T I M I N G                                  -
 -                                                                             -
 -------------------------------------------------------------------------------
 SUBROUTINE                       CALLS  ASD         SELF TIME        TOTAL TIME
                                MAXIMUM       AVERAGE  MAXIMUM  AVERAGE  MAXIMUM
 CP2K                                 1  1.0    0.003    0.003   41.451   41.451
 qs_energies                          1  2.0    0.000    0.000   41.413   41.413
 scf_env_do_scf                       1  3.0    0.000    0.000   41.408   41.408
 scf_env_do_scf_inner_loop          502  4.0    0.027    0.027   41.408   41.408
 qs_scf_loop_print                  502  5.0   23.444   23.444   23.507   23.507
 qs_scf_new_mos                     502  5.0    0.006    0.006   11.961   11.961
 eigensolver                        502  6.0    0.016    0.016    5.996    5.996
 qs_ks_update_qs_env                502  5.0    0.002    0.002    5.621    5.621
 rebuild_ks_matrix                  502  6.0    0.001    0.001    5.609    5.609
 build_dftb_ks_matrix               502  7.0    0.006    0.006    5.608    5.608
 build_dftb_coulomb                 502  8.0    0.027    0.027    5.576    5.576
 dftb_spme_evaluate                 502  9.0    0.199    0.199    5.528    5.528
 pw_transfer                       3514 10.7    0.080    0.080    4.985    4.985
 fft_wrap_pw1pw2                   1004 11.0    0.004    0.004    4.856    4.856
 fft_wrap_pw1pw2_10                1004 12.0    0.320    0.320    4.852    4.852
 cp_fm_syevd                        502  7.0    0.002    0.002    4.202    4.202
 cp_fm_syevd_base                   502  8.0    4.199    4.199    4.199    4.199
 fft3d_s                           1005 13.0    4.067    4.067    4.069    4.069
 qs_diis_b_step                     501  6.0    0.011    0.011    2.830    2.830
 calculate_dm_sparse                502  6.0    0.010    0.010    2.446    2.446
 cp_dbcsr_plus_fm_fm_t_native       502  7.0    0.005    0.005    2.401    2.401
 cp_fm_cholesky_restore            1506  7.0    1.514    1.514    1.514    1.514
 dbcsr_complete_redistribute       2008  8.2    0.640    0.640    1.315    1.315
 dbcsr_multiply_generic             502  8.0    0.020    0.020    1.236    1.236
 copy_fm_to_dbcsr                  1004  8.0    0.003    0.003    1.149    1.149
 cp_fm_symm                        1002  7.0    1.107    1.107    1.107    1.107
 cp_gemm                           1002  7.0    0.002    0.002    0.986    0.986
 cp_gemm_fm_gemm                   1002  8.0    0.001    0.001    0.985    0.985
 cp_fm_gemm                        1002  9.0    0.984    0.984    0.984    0.984
 -------------------------------------------------------------------------------

 The number of warnings for this run is : 2
 
 -------------------------------------------------------------------------------
  **** **** ******  **  PROGRAM ENDED AT                 2019-07-15 16:35:35.349
 ***** ** ***  *** **   PROGRAM RAN ON                login4.colonialone.gwu.edu
 **    ****   ******    PROGRAM RAN BY                                  zanghang
 ***** **    ** ** **   PROGRAM PROCESS ID                                  1558
  **** **  *******  **  PROGRAM STOPPED IN /home/zanghang/new-Benchmark-cp2k-Kwa
                                           nt-electrode
